# vtk DataFile Version 3.0
#This file was generated by the deal.II library on 2020/8/11 at 22:16:21
ASCII
DATASET UNSTRUCTURED_GRID

POINTS 4096 double
0.5 0 0
0.743896 0 0
0.743896 0 0
0.987793 0 0
0.987793 0 0
1.23169 0 0
1.23169 0 0
1.47559 0 0
1.47559 0 0
1.71948 0 0
1.71948 0 0
1.96338 0 0
1.96338 0 0
2.20728 0 0
2.20728 0 0
2.45117 0 0
2.45117 0 0
2.69507 0 0
2.69507 0 0
2.93896 0 0
2.93896 0 0
3.18286 0 0
3.18286 0 0
3.42676 0 0
3.42676 0 0
3.67065 0 0
3.67065 0 0
3.91455 0 0
3.91455 0 0
4.15845 0 0
4.15845 0 0
4.40234 0 0
4.40234 0 0
4.64624 0 0
4.64624 0 0
4.89014 0 0
4.89014 0 0
5.13403 0 0
5.13403 0 0
5.37793 0 0
5.37793 0 0
5.62183 0 0
5.62183 0 0
5.86572 0 0
5.86572 0 0
6.10962 0 0
6.10962 0 0
6.35352 0 0
6.35352 0 0
6.59741 0 0
6.59741 0 0
6.84131 0 0
6.84131 0 0
7.08521 0 0
7.08521 0 0
7.3291 0 0
7.3291 0 0
7.573 0 0
7.573 0 0
7.81689 0 0
7.81689 0 0
8.06079 0 0
8.06079 0 0
8.30469 0 0
8.30469 0 0
8.54858 0 0
8.54858 0 0
8.79248 0 0
8.79248 0 0
9.03638 0 0
9.03638 0 0
9.28027 0 0
9.28027 0 0
9.52417 0 0
9.52417 0 0
9.76807 0 0
9.76807 0 0
10.012 0 0
10.012 0 0
10.2559 0 0
10.2559 0 0
10.4998 0 0
10.4998 0 0
10.7437 0 0
10.7437 0 0
10.9875 0 0
10.9875 0 0
11.2314 0 0
11.2314 0 0
11.4753 0 0
11.4753 0 0
11.7192 0 0
11.7192 0 0
11.9631 0 0
11.9631 0 0
12.207 0 0
12.207 0 0
12.4509 0 0
12.4509 0 0
12.6948 0 0
12.6948 0 0
12.9387 0 0
12.9387 0 0
13.1826 0 0
13.1826 0 0
13.4265 0 0
13.4265 0 0
13.6704 0 0
13.6704 0 0
13.9143 0 0
13.9143 0 0
14.1582 0 0
14.1582 0 0
14.4021 0 0
14.4021 0 0
14.646 0 0
14.646 0 0
14.8899 0 0
14.8899 0 0
15.1338 0 0
15.1338 0 0
15.3777 0 0
15.3777 0 0
15.6216 0 0
15.6216 0 0
15.8655 0 0
15.8655 0 0
16.1094 0 0
16.1094 0 0
16.3533 0 0
16.3533 0 0
16.5972 0 0
16.5972 0 0
16.8411 0 0
16.8411 0 0
17.085 0 0
17.085 0 0
17.3289 0 0
17.3289 0 0
17.5728 0 0
17.5728 0 0
17.8167 0 0
17.8167 0 0
18.0605 0 0
18.0605 0 0
18.3044 0 0
18.3044 0 0
18.5483 0 0
18.5483 0 0
18.7922 0 0
18.7922 0 0
19.0361 0 0
19.0361 0 0
19.28 0 0
19.28 0 0
19.5239 0 0
19.5239 0 0
19.7678 0 0
19.7678 0 0
20.0117 0 0
20.0117 0 0
20.2556 0 0
20.2556 0 0
20.4995 0 0
20.4995 0 0
20.7434 0 0
20.7434 0 0
20.9873 0 0
20.9873 0 0
21.2312 0 0
21.2312 0 0
21.4751 0 0
21.4751 0 0
21.719 0 0
21.719 0 0
21.9629 0 0
21.9629 0 0
22.2068 0 0
22.2068 0 0
22.4507 0 0
22.4507 0 0
22.6946 0 0
22.6946 0 0
22.9385 0 0
22.9385 0 0
23.1824 0 0
23.1824 0 0
23.4263 0 0
23.4263 0 0
23.6702 0 0
23.6702 0 0
23.9141 0 0
23.9141 0 0
24.158 0 0
24.158 0 0
24.4019 0 0
24.4019 0 0
24.6458 0 0
24.6458 0 0
24.8896 0 0
24.8896 0 0
25.1335 0 0
25.1335 0 0
25.3774 0 0
25.3774 0 0
25.6213 0 0
25.6213 0 0
25.8652 0 0
25.8652 0 0
26.1091 0 0
26.1091 0 0
26.353 0 0
26.353 0 0
26.5969 0 0
26.5969 0 0
26.8408 0 0
26.8408 0 0
27.0847 0 0
27.0847 0 0
27.3286 0 0
27.3286 0 0
27.5725 0 0
27.5725 0 0
27.8164 0 0
27.8164 0 0
28.0603 0 0
28.0603 0 0
28.3042 0 0
28.3042 0 0
28.5481 0 0
28.5481 0 0
28.792 0 0
28.792 0 0
29.0359 0 0
29.0359 0 0
29.2798 0 0
29.2798 0 0
29.5237 0 0
29.5237 0 0
29.7676 0 0
29.7676 0 0
30.0115 0 0
30.0115 0 0
30.2554 0 0
30.2554 0 0
30.4993 0 0
30.4993 0 0
30.7432 0 0
30.7432 0 0
30.9871 0 0
30.9871 0 0
31.231 0 0
31.231 0 0
31.4749 0 0
31.4749 0 0
31.7188 0 0
31.7188 0 0
31.9626 0 0
31.9626 0 0
32.2065 0 0
32.2065 0 0
32.4504 0 0
32.4504 0 0
32.6943 0 0
32.6943 0 0
32.9382 0 0
32.9382 0 0
33.1821 0 0
33.1821 0 0
33.426 0 0
33.426 0 0
33.6699 0 0
33.6699 0 0
33.9138 0 0
33.9138 0 0
34.1577 0 0
34.1577 0 0
34.4016 0 0
34.4016 0 0
34.6455 0 0
34.6455 0 0
34.8894 0 0
34.8894 0 0
35.1333 0 0
35.1333 0 0
35.3772 0 0
35.3772 0 0
35.6211 0 0
35.6211 0 0
35.865 0 0
35.865 0 0
36.1089 0 0
36.1089 0 0
36.3528 0 0
36.3528 0 0
36.5967 0 0
36.5967 0 0
36.8406 0 0
36.8406 0 0
37.0845 0 0
37.0845 0 0
37.3284 0 0
37.3284 0 0
37.5723 0 0
37.5723 0 0
37.8162 0 0
37.8162 0 0
38.0601 0 0
38.0601 0 0
38.304 0 0
38.304 0 0
38.5479 0 0
38.5479 0 0
38.7917 0 0
38.7917 0 0
39.0356 0 0
39.0356 0 0
39.2795 0 0
39.2795 0 0
39.5234 0 0
39.5234 0 0
39.7673 0 0
39.7673 0 0
40.0112 0 0
40.0112 0 0
40.2551 0 0
40.2551 0 0
40.499 0 0
40.499 0 0
40.7429 0 0
40.7429 0 0
40.9868 0 0
40.9868 0 0
41.2307 0 0
41.2307 0 0
41.4746 0 0
41.4746 0 0
41.7185 0 0
41.7185 0 0
41.9624 0 0
41.9624 0 0
42.2063 0 0
42.2063 0 0
42.4502 0 0
42.4502 0 0
42.6941 0 0
42.6941 0 0
42.938 0 0
42.938 0 0
43.1819 0 0
43.1819 0 0
43.4258 0 0
43.4258 0 0
43.6697 0 0
43.6697 0 0
43.9136 0 0
43.9136 0 0
44.1575 0 0
44.1575 0 0
44.4014 0 0
44.4014 0 0
44.6453 0 0
44.6453 0 0
44.8892 0 0
44.8892 0 0
45.1331 0 0
45.1331 0 0
45.377 0 0
45.377 0 0
45.6208 0 0
45.6208 0 0
45.8647 0 0
45.8647 0 0
46.1086 0 0
46.1086 0 0
46.3525 0 0
46.3525 0 0
46.5964 0 0
46.5964 0 0
46.8403 0 0
46.8403 0 0
47.0842 0 0
47.0842 0 0
47.3281 0 0
47.3281 0 0
47.572 0 0
47.572 0 0
47.8159 0 0
47.8159 0 0
48.0598 0 0
48.0598 0 0
48.3037 0 0
48.3037 0 0
48.5476 0 0
48.5476 0 0
48.7915 0 0
48.7915 0 0
49.0354 0 0
49.0354 0 0
49.2793 0 0
49.2793 0 0
49.5232 0 0
49.5232 0 0
49.7671 0 0
49.7671 0 0
50.011 0 0
50.011 0 0
50.2549 0 0
50.2549 0 0
50.4988 0 0
50.4988 0 0
50.7427 0 0
50.7427 0 0
50.9866 0 0
50.9866 0 0
51.2305 0 0
51.2305 0 0
51.4744 0 0
51.4744 0 0
51.7183 0 0
51.7183 0 0
51.9622 0 0
51.9622 0 0
52.2061 0 0
52.2061 0 0
52.45 0 0
52.45 0 0
52.6938 0 0
52.6938 0 0
52.9377 0 0
52.9377 0 0
53.1816 0 0
53.1816 0 0
53.4255 0 0
53.4255 0 0
53.6694 0 0
53.6694 0 0
53.9133 0 0
53.9133 0 0
54.1572 0 0
54.1572 0 0
54.4011 0 0
54.4011 0 0
54.645 0 0
54.645 0 0
54.8889 0 0
54.8889 0 0
55.1328 0 0
55.1328 0 0
55.3767 0 0
55.3767 0 0
55.6206 0 0
55.6206 0 0
55.8645 0 0
55.8645 0 0
56.1084 0 0
56.1084 0 0
56.3523 0 0
56.3523 0 0
56.5962 0 0
56.5962 0 0
56.8401 0 0
56.8401 0 0
57.084 0 0
57.084 0 0
57.3279 0 0
57.3279 0 0
57.5718 0 0
57.5718 0 0
57.8157 0 0
57.8157 0 0
58.0596 0 0
58.0596 0 0
58.3035 0 0
58.3035 0 0
58.5474 0 0
58.5474 0 0
58.7913 0 0
58.7913 0 0
59.0352 0 0
59.0352 0 0
59.2791 0 0
59.2791 0 0
59.5229 0 0
59.5229 0 0
59.7668 0 0
59.7668 0 0
60.0107 0 0
60.0107 0 0
60.2546 0 0
60.2546 0 0
60.4985 0 0
60.4985 0 0
60.7424 0 0
60.7424 0 0
60.9863 0 0
60.9863 0 0
61.2302 0 0
61.2302 0 0
61.4741 0 0
61.4741 0 0
61.718 0 0
61.718 0 0
61.9619 0 0
61.9619 0 0
62.2058 0 0
62.2058 0 0
62.4497 0 0
62.4497 0 0
62.6936 0 0
62.6936 0 0
62.9375 0 0
62.9375 0 0
63.1814 0 0
63.1814 0 0
63.4253 0 0
63.4253 0 0
63.6692 0 0
63.6692 0 0
63.9131 0 0
63.9131 0 0
64.157 0 0
64.157 0 0
64.4009 0 0
64.4009 0 0
64.6448 0 0
64.6448 0 0
64.8887 0 0
64.8887 0 0
65.1326 0 0
65.1326 0 0
65.3765 0 0
65.3765 0 0
65.6204 0 0
65.6204 0 0
65.8643 0 0
65.8643 0 0
66.1082 0 0
66.1082 0 0
66.3521 0 0
66.3521 0 0
66.5959 0 0
66.5959 0 0
66.8398 0 0
66.8398 0 0
67.0837 0 0
67.0837 0 0
67.3276 0 0
67.3276 0 0
67.5715 0 0
67.5715 0 0
67.8154 0 0
67.8154 0 0
68.0593 0 0
68.0593 0 0
68.3032 0 0
68.3032 0 0
68.5471 0 0
68.5471 0 0
68.791 0 0
68.791 0 0
69.0349 0 0
69.0349 0 0
69.2788 0 0
69.2788 0 0
69.5227 0 0
69.5227 0 0
69.7666 0 0
69.7666 0 0
70.0105 0 0
70.0105 0 0
70.2544 0 0
70.2544 0 0
70.4983 0 0
70.4983 0 0
70.7422 0 0
70.7422 0 0
70.9861 0 0
70.9861 0 0
71.23 0 0
71.23 0 0
71.4739 0 0
71.4739 0 0
71.7178 0 0
71.7178 0 0
71.9617 0 0
71.9617 0 0
72.2056 0 0
72.2056 0 0
72.4495 0 0
72.4495 0 0
72.6934 0 0
72.6934 0 0
72.9373 0 0
72.9373 0 0
73.1812 0 0
73.1812 0 0
73.425 0 0
73.425 0 0
73.6689 0 0
73.6689 0 0
73.9128 0 0
73.9128 0 0
74.1567 0 0
74.1567 0 0
74.4006 0 0
74.4006 0 0
74.6445 0 0
74.6445 0 0
74.8884 0 0
74.8884 0 0
75.1323 0 0
75.1323 0 0
75.3762 0 0
75.3762 0 0
75.6201 0 0
75.6201 0 0
75.864 0 0
75.864 0 0
76.1079 0 0
76.1079 0 0
76.3518 0 0
76.3518 0 0
76.5957 0 0
76.5957 0 0
76.8396 0 0
76.8396 0 0
77.0835 0 0
77.0835 0 0
77.3274 0 0
77.3274 0 0
77.5713 0 0
77.5713 0 0
77.8152 0 0
77.8152 0 0
78.0591 0 0
78.0591 0 0
78.303 0 0
78.303 0 0
78.5469 0 0
78.5469 0 0
78.7908 0 0
78.7908 0 0
79.0347 0 0
79.0347 0 0
79.2786 0 0
79.2786 0 0
79.5225 0 0
79.5225 0 0
79.7664 0 0
79.7664 0 0
80.0103 0 0
80.0103 0 0
80.2542 0 0
80.2542 0 0
80.498 0 0
80.498 0 0
80.7419 0 0
80.7419 0 0
80.9858 0 0
80.9858 0 0
81.2297 0 0
81.2297 0 0
81.4736 0 0
81.4736 0 0
81.7175 0 0
81.7175 0 0
81.9614 0 0
81.9614 0 0
82.2053 0 0
82.2053 0 0
82.4492 0 0
82.4492 0 0
82.6931 0 0
82.6931 0 0
82.937 0 0
82.937 0 0
83.1809 0 0
83.1809 0 0
83.4248 0 0
83.4248 0 0
83.6687 0 0
83.6687 0 0
83.9126 0 0
83.9126 0 0
84.1565 0 0
84.1565 0 0
84.4004 0 0
84.4004 0 0
84.6443 0 0
84.6443 0 0
84.8882 0 0
84.8882 0 0
85.1321 0 0
85.1321 0 0
85.376 0 0
85.376 0 0
85.6199 0 0
85.6199 0 0
85.8638 0 0
85.8638 0 0
86.1077 0 0
86.1077 0 0
86.3516 0 0
86.3516 0 0
86.5955 0 0
86.5955 0 0
86.8394 0 0
86.8394 0 0
87.0833 0 0
87.0833 0 0
87.3271 0 0
87.3271 0 0
87.571 0 0
87.571 0 0
87.8149 0 0
87.8149 0 0
88.0588 0 0
88.0588 0 0
88.3027 0 0
88.3027 0 0
88.5466 0 0
88.5466 0 0
88.7905 0 0
88.7905 0 0
89.0344 0 0
89.0344 0 0
89.2783 0 0
89.2783 0 0
89.5222 0 0
89.5222 0 0
89.7661 0 0
89.7661 0 0
90.01 0 0
90.01 0 0
90.2539 0 0
90.2539 0 0
90.4978 0 0
90.4978 0 0
90.7417 0 0
90.7417 0 0
90.9856 0 0
90.9856 0 0
91.2295 0 0
91.2295 0 0
91.4734 0 0
91.4734 0 0
91.7173 0 0
91.7173 0 0
91.9612 0 0
91.9612 0 0
92.2051 0 0
92.2051 0 0
92.449 0 0
92.449 0 0
92.6929 0 0
92.6929 0 0
92.9368 0 0
92.9368 0 0
93.1807 0 0
93.1807 0 0
93.4246 0 0
93.4246 0 0
93.6685 0 0
93.6685 0 0
93.9124 0 0
93.9124 0 0
94.1562 0 0
94.1562 0 0
94.4001 0 0
94.4001 0 0
94.644 0 0
94.644 0 0
94.8879 0 0
94.8879 0 0
95.1318 0 0
95.1318 0 0
95.3757 0 0
95.3757 0 0
95.6196 0 0
95.6196 0 0
95.8635 0 0
95.8635 0 0
96.1074 0 0
96.1074 0 0
96.3513 0 0
96.3513 0 0
96.5952 0 0
96.5952 0 0
96.8391 0 0
96.8391 0 0
97.083 0 0
97.083 0 0
97.3269 0 0
97.3269 0 0
97.5708 0 0
97.5708 0 0
97.8147 0 0
97.8147 0 0
98.0586 0 0
98.0586 0 0
98.3025 0 0
98.3025 0 0
98.5464 0 0
98.5464 0 0
98.7903 0 0
98.7903 0 0
99.0342 0 0
99.0342 0 0
99.2781 0 0
99.2781 0 0
99.522 0 0
99.522 0 0
99.7659 0 0
99.7659 0 0
100.01 0 0
100.01 0 0
100.254 0 0
100.254 0 0
100.498 0 0
100.498 0 0
100.741 0 0
100.741 0 0
100.985 0 0
100.985 0 0
101.229 0 0
101.229 0 0
101.473 0 0
[...]
POINT_DATA 4096
SCALARS solution_0 double 1
LOOKUP_TABLE default
0.0202517 -5.38851 -5.38851 -1.342 -1.342 -0.530302 -0.530302 -0.0996846 -0.0996846 0.0776692 0.0776692 0.226105 0.226105 0.233112 0.233112 0.170437 0.170437 0.000618526 0.000618526 -0.0718183 -0.0718183 -0.136892 -0.136892 0.07958 0.07958 0.147234 0.147234 0.200181 0.200181 0.158583 0.158583 0.339003 0.339003 0.691901 0.691901 1.08889 1.08889 1.53852 1.53852 2.23651 2.23651 3.25533 3.25533 4.29188 4.29188 5.41043 5.41043 6.58528 6.58528 7.66162 7.66162 8.34377 8.34377 8.66494 8.66494 8.59537 8.59537 8.01837 8.01837 7.03722 7.03722 5.89785 5.89785 4.64847 4.64847 3.40614 3.40614 2.38515 2.38515 1.58391 1.58391 0.933427 0.933427 0.559726 0.559726 0.299567 0.299567 0.146269 0.146269 0.0611927 0.0611927 0.046733 0.046733 -0.000374594 -0.000374594 0.0061095 0.0061095 0.00922532 0.00922532 -0.00620032 -0.00620032 -0.002898 -0.002898 0.0144899 0.0144899 -0.0198357 -0.0198357 0.0167666 0.0167666 -0.00842267 -0.00842267 0.000520756 0.000520756 0.00289744 0.00289744 -0.00149702 -0.00149702 -0.00211154 -0.00211154 0.00474862 0.00474862 -0.00474474 -0.00474474 0.00253469 0.00253469 0.000182635 0.000182635 -0.00181366 -0.00181366 0.00180212 0.00180212 -0.000690033 -0.000690033 -0.000489432 -0.000489432 0.000948805 0.000948805 -0.000546982 -0.000546982 -0.000291071 -0.000291071 0.000965339 0.000965339 -0.00109951 -0.00109951 0.000717636 0.000717636 -0.000150868 -0.000150868 -0.000211955 -0.000211955 0.000157142 0.000157142 0.000261674 0.000261674 -0.00079311 -0.00079311 0.00115069 0.00115069 -0.00116622 -0.00116622 0.000857703 0.000857703 -0.000393803 -0.000393803 -8.57195e-06 -8.57195e-06 0.000192275 0.000192275 -0.000121838 -0.000121838 -0.000120634 -0.000120634 0.000391389 0.000391389 -0.000558139 -0.000558139 0.000555102 0.000555102 -0.000399627 -0.000399627 0.00017066 0.00017066 3.46236e-05 3.46236e-05 -0.000143858 -0.000143858 0.00013465 0.00013465 -3.50926e-05 -3.50926e-05 -9.58667e-05 -9.58667e-05 0.000196664 0.000196664 -0.000227344 -0.000227344 0.000181246 0.000181246 -8.20973e-05 -8.20973e-05 -2.96588e-05 -2.96588e-05 0.000114236 0.000114236 -0.000146594 -0.000146594 0.000122834 0.000122834 -5.81123e-05 -5.81123e-05 -2.15746e-05 -2.15746e-05 8.97506e-05 8.97506e-05 -0.000128054 -0.000128054 0.000130564 0.000130564 -0.000103298 -0.000103298 6.00229e-05 6.00229e-05 -1.64776e-05 -1.64776e-05 -1.48233e-05 -1.48233e-05 2.77011e-05 2.77011e-05 -2.28154e-05 -2.28154e-05 5.96914e-06 5.96914e-06 1.47821e-05 1.47821e-05 -3.20672e-05 -3.20672e-05 4.12795e-05 4.12795e-05 -4.13603e-05 -4.13603e-05 3.43378e-05 3.43378e-05 -2.40389e-05 -2.40389e-05 1.45411e-05 1.45411e-05 -8.88237e-06 -8.88237e-06 8.35227e-06 8.35227e-06 -1.24448e-05 -1.24448e-05 1.93413e-05 1.93413e-05 -2.66698e-05 -2.66698e-05 3.22653e-05 3.22653e-05 -3.47172e-05 -3.47172e-05 3.35991e-05 3.35991e-05 -2.93883e-05 -2.93883e-05 2.31656e-05 2.31656e-05 -1.62263e-05 -1.62263e-05 9.72467e-06 9.72467e-06 -4.4379e-06 -4.4379e-06 6.82182e-07 6.82182e-07 1.63454e-06 1.63454e-06 -2.87097e-06 -2.87097e-06 3.48113e-06 3.48113e-06 -3.86556e-06 -3.86556e-06 4.278e-06 4.278e-06 -4.79761e-06 -4.79761e-06 5.35691e-06 5.35691e-06 -5.80373e-06 -5.80373e-06 5.97199e-06 5.97199e-06 -5.74054e-06 -5.74054e-06 5.06761e-06 5.06761e-06 -3.99797e-06 -3.99797e-06 2.64759e-06 2.64759e-06 -1.17485e-06 -1.17485e-06 -2.51748e-07 -2.51748e-07 1.48144e-06 1.48144e-06 -2.40002e-06 -2.40002e-06 2.93863e-06 2.93863e-06 -3.07412e-06 -3.07412e-06 2.82376e-06 2.82376e-06 -2.23746e-06 -2.23746e-06 1.38942e-06 1.38942e-06 -3.70219e-07 -3.70219e-07 -7.20604e-07 -7.20604e-07 1.78198e-06 1.78198e-06 -2.71916e-06 -2.71916e-06 3.45187e-06 3.45187e-06 -3.92212e-06 -3.92212e-06 4.10044e-06 4.10044e-06 -3.98934e-06 -3.98934e-06 3.62289e-06 3.62289e-06 -3.06215e-06 -3.06215e-06 2.38673e-06 2.38673e-06 -1.68377e-06 -1.68377e-06 1.03607e-06 1.03607e-06 -5.11181e-07 -5.11181e-07 1.53392e-07 1.53392e-07 2.0446e-08 2.0446e-08 -2.0635e-08 -2.0635e-08 -1.19679e-07 -1.19679e-07 3.5185e-07 3.5185e-07 -6.20666e-07 -6.20666e-07 8.7327e-07 8.7327e-07 -1.06667e-06 -1.06667e-06 1.1728e-06 1.1728e-06 -1.18059e-06 -1.18059e-06 1.09523e-06 1.09523e-06 -9.34918e-07 -9.34918e-07 7.26198e-07 7.26198e-07 -4.98666e-07 -4.98666e-07 2.80061e-07 2.80061e-07 -9.2438e-08 -9.2438e-08 -5.01367e-08 -5.01367e-08 1.42268e-07 1.42268e-07 -1.86445e-07 -1.86445e-07 1.91177e-07 1.91177e-07 -1.6854e-07 -1.6854e-07 1.31629e-07 1.31629e-07 -9.23487e-08 -9.23487e-08 5.98288e-08 5.98288e-08 -3.96036e-08 -3.96036e-08 3.35366e-08 3.35366e-08 -4.03569e-08 -4.03569e-08 5.65949e-08 5.65949e-08 -7.76844e-08 -7.76844e-08 9.90118e-08 9.90118e-08 -1.16748e-07 -1.16748e-07 1.28369e-07 1.28369e-07 -1.32837e-07 -1.32837e-07 1.30488e-07 1.30488e-07 -1.22698e-07 -1.22698e-07 1.11435e-07 1.11435e-07 -9.87959e-08 -9.87959e-08 8.66172e-08 8.66172e-08 -7.62053e-08 -7.62053e-08 6.82167e-08 6.82167e-08 -6.26777e-08 -6.26777e-08 5.91132e-08 5.91132e-08 -5.6742e-08 -5.6742e-08 5.46909e-08 5.46909e-08 -5.21866e-08 -5.21866e-08 4.86952e-08 4.86952e-08 -4.39936e-08 -4.39936e-08 3.81728e-08 3.81728e-08 -3.1582e-08 -3.1582e-08 2.47355e-08 2.47355e-08 -1.82016e-08 -1.82016e-08 1.2498e-08 1.2498e-08 -8.00875e-09 -8.00875e-09 4.93379e-09 4.93379e-09 -3.2756e-09 -3.2756e-09 2.85867e-09 2.85867e-09 -3.37452e-09 -3.37452e-09 4.4414e-09 4.4414e-09 -5.6672e-09 -5.6672e-09 6.70544e-09 6.70544e-09 -7.29676e-09 -7.29676e-09 7.29194e-09 7.29194e-09 -6.65562e-09 -6.65562e-09 5.45333e-09 5.45333e-09 -3.82602e-09 -3.82602e-09 1.95809e-09 1.95809e-09 -4.4267e-11 -4.4267e-11 -1.73943e-09 -1.73943e-09 3.2573e-09 3.2573e-09 -4.42618e-09 -4.42618e-09 5.21808e-09 5.21808e-09 -5.65454e-09 -5.65454e-09 5.79482e-09 5.79482e-09 -5.72071e-09 -5.72071e-09 5.52077e-09 5.52077e-09 -5.27629e-09 -5.27629e-09 5.05077e-09 5.05077e-09 -4.88383e-09 -4.88383e-09 4.78965e-09 4.78965e-09 -4.75952e-09 -4.75952e-09 4.76734e-09 4.76734e-09 -4.77688e-09 -4.77688e-09 4.74942e-09 4.74942e-09 -4.6507e-09 -4.6507e-09 4.45619e-09 4.45619e-09 -4.15427e-09 -4.15427e-09 3.74713e-09 3.74713e-09 -3.2497e-09 -3.2497e-09 2.68683e-09 2.68683e-09 -2.08964e-09 -2.08964e-09 1.49139e-09 1.49139e-09 -9.23606e-10 -9.23606e-10 4.12907e-10 4.12907e-10 2.12022e-11 2.12022e-11 -3.67406e-10 -3.67406e-10 6.22572e-10 6.22572e-10 -7.90844e-10 -7.90844e-10 8.82063e-10 8.82063e-10 -9.09839e-10 -9.09839e-10 8.89547e-10 8.89547e-10 -8.36495e-10 -8.36495e-10 7.64465e-10 7.64465e-10 -6.84714e-10 -6.84714e-10 6.05473e-10 6.05473e-10 -5.31908e-10 -5.31908e-10 4.6645e-10 4.6645e-10 -4.09374e-10 -4.09374e-10 3.59517e-10 3.59517e-10 -3.14981e-10 -3.14981e-10 2.7377e-10 2.7377e-10 -2.34255e-10 -2.34255e-10 1.95462e-10 1.95462e-10 -1.5717e-10 -1.5717e-10 1.19844e-10 1.19844e-10 -8.44563e-11 -8.44563e-11 5.22308e-11 5.22308e-11 -2.43807e-11 -2.43807e-11 1.86942e-12 1.86942e-12 1.47627e-11 1.47627e-11 -2.54912e-11 -2.54912e-11 3.0814e-11 3.0814e-11 -3.16797e-11 -3.16797e-11 2.93576e-11 2.93576e-11 -2.52711e-11 -2.52711e-11 2.08235e-11 2.08235e-11 -1.7237e-11 -1.7237e-11 1.54274e-11 1.54274e-11 -1.59253e-11 -1.59253e-11 1.88499e-11 1.88499e-11 -2.3934e-11 -2.3934e-11 3.0592e-11 3.0592e-11 -3.80191e-11 -3.80191e-11 4.53072e-11 4.53072e-11 -5.1562e-11 -5.1562e-11 5.60091e-11 5.60091e-11 -5.80771e-11 -5.80771e-11 5.74516e-11 5.74516e-11 -5.40959e-11 -5.40959e-11 4.82414e-11 4.82414e-11 -4.03488e-11 -4.03488e-11 3.10498e-11 3.10498e-11 -2.10755e-11 -2.10755e-11 1.11809e-11 1.11809e-11 -2.07277e-12 -2.07277e-12 -5.65137e-12 -5.65137e-12 1.15486e-11 1.15486e-11 -1.5358e-11 -1.5358e-11 1.70085e-11 1.70085e-11 -1.66087e-11 -1.66087e-11 1.44225e-11 1.44225e-11 -1.0832e-11 -1.0832e-11 6.29519e-12 6.29519e-12 -1.3005e-12 -1.3005e-12 -3.67608e-12 -3.67608e-12 8.20831e-12 8.20831e-12 -1.19488e-11 -1.19488e-11 1.46484e-11 1.46484e-11 -1.6165e-11 -1.6165e-11 1.64632e-11 1.64632e-11 -1.56048e-11 -1.56048e-11 1.37329e-11 1.37329e-11 -1.10515e-11 -1.10515e-11 7.80298e-12 7.80298e-12 -4.24489e-12 -4.24489e-12 6.29158e-13 6.29158e-13 2.81594e-12 2.81594e-12 -5.89953e-12 -5.89953e-12 8.47724e-12 8.47724e-12 -1.04555e-11 -1.04555e-11 1.17913e-11 1.17913e-11 -1.24888e-11 -1.24888e-11 1.2592e-11 1.2592e-11 -1.21765e-11 -1.21765e-11 1.13395e-11 1.13395e-11 -1.01899e-11 -1.01899e-11 8.83954e-12 8.83954e-12 -7.39456e-12 -7.39456e-12 5.94965e-12 5.94965e-12 -4.58328e-12 -4.58328e-12 3.35522e-12 3.35522e-12 -2.30566e-12 -2.30566e-12 1.45594e-12 1.45594e-12 -8.10507e-13 -8.10507e-13 3.59647e-13 3.59647e-13 -8.28531e-14 -8.28531e-14 -4.77078e-14 -4.77078e-14 6.38169e-14 6.38169e-14 1.83042e-15 1.83042e-15 -1.18152e-13 -1.18152e-13 2.57604e-13 2.57604e-13 -3.97474e-13 -3.97474e-13 5.2056e-13 5.2056e-13 -6.15303e-13 -6.15303e-13 6.75464e-13 6.75464e-13 -6.99462e-13 -6.99462e-13 6.89485e-13 6.89485e-13 -6.50487e-13 -6.50487e-13 5.89171e-13 5.89171e-13 -5.13042e-13 -5.13042e-13 4.29587e-13 4.29587e-13 -3.45627e-13 -3.45627e-13 2.66847e-13 2.66847e-13 -1.9752e-13 -1.9752e-13 1.40405e-13 1.40405e-13 -9.67868e-14 -9.67868e-14 6.66364e-14 6.66364e-14 -4.88477e-14 -4.88477e-14 4.15245e-14 4.15245e-14 -4.22784e-14 -4.22784e-14 4.85152e-14 4.85152e-14 -5.76871e-14 -5.76871e-14 6.74966e-14 6.74966e-14 -7.60448e-14 -7.60448e-14 8.19214e-14 8.19214e-14 -8.4239e-14 -8.4239e-14 8.26204e-14 8.26204e-14 -7.71454e-14 -7.71454e-14 6.82701e-14 6.82701e-14 -5.67293e-14 -5.67293e-14 4.34314e-14 4.34314e-14 -2.93568e-14 -2.93568e-14 1.54656e-14 1.54656e-14 -2.6213e-15 -2.6213e-15 -8.46658e-15 -8.46658e-15 1.72799e-14 1.72799e-14 -2.3509e-14 -2.3509e-14 2.70519e-14 2.70519e-14 -2.79976e-14 -2.79976e-14 2.65982e-14 2.65982e-14 -2.32322e-14 -2.32322e-14 1.83643e-14 1.83643e-14 -1.25039e-14 -1.25039e-14 6.16578e-15 6.16578e-15 1.63756e-16 1.63756e-16 -6.05538e-15 -6.05538e-15 1.11571e-14 1.11571e-14 -1.52071e-14 -1.52071e-14 1.80391e-14 1.80391e-14 -1.95809e-14 -1.95809e-14 1.98469e-14 1.98469e-14 -1.89266e-14 -1.89266e-14 1.69694e-14 1.69694e-14 -1.41684e-14 -1.41684e-14 1.0743e-14 1.0743e-14 -6.92292e-15 -6.92292e-15 2.93318e-15 2.93318e-15 1.01803e-15 1.01803e-15 -4.7491e-15 -4.7491e-15 8.1118e-15 8.1118e-15 -1.0995e-14 -1.0995e-14 1.33259e-14 1.33259e-14 -1.50686e-14 -1.50686e-14 1.62211e-14 1.62211e-14 -1.68103e-14 -1.68103e-14 1.68867e-14 1.68867e-14 -1.65178e-14 -1.65178e-14 1.57825e-14 1.57825e-14 -1.47645e-14 -1.47645e-14 1.35476e-14 1.35476e-14 -1.22111e-14 -1.22111e-14 1.08264e-14 1.08264e-14 -9.4542e-15 -9.4542e-15 8.14363e-15 8.14363e-15 -6.93123e-15 -6.93123e-15 5.84141e-15 5.84141e-15 -4.88734e-15 -4.88734e-15 4.07232e-15 4.07232e-15 -3.39152e-15 -3.39152e-15 2.83388e-15 2.83388e-15 -2.38403e-15 -2.38403e-15 2.02407e-15 2.02407e-15 -1.73526e-15 -1.73526e-15 1.49938e-15 1.49938e-15 -1.2998e-15 -1.2998e-15 1.1223e-15 1.1223e-15 -9.55493e-16 -9.55493e-16 7.91086e-16 7.91086e-16 -6.23791e-16 -6.23791e-16 4.51115e-16 4.51115e-16 -2.72972e-16 -2.72972e-16 9.12074e-17 9.12074e-17 9.09226e-17 9.09226e-17 -2.69281e-16 -2.69281e-16 4.39345e-16 4.39345e-16 -5.96652e-16 -5.96652e-16 7.37159e-16 7.37159e-16 -8.57521e-16 -8.57521e-16 9.55285e-16 9.55285e-16 -1.02898e-15 -1.02898e-15 1.07814e-15 1.07814e-15 -1.10328e-15 -1.10328e-15 1.10573e-15 1.10573e-15 -1.08759e-15 -1.08759e-15 1.05147e-15 1.05147e-15 -1.00039e-15 -1.00039e-15 9.37528e-16 9.37528e-16 -8.66145e-16 -8.66145e-16 7.89373e-16 7.89373e-16 -7.10127e-16 -7.10127e-16 6.31003e-16 6.31003e-16 -5.54221e-16 -5.54221e-16 4.81584e-16 4.81584e-16 -4.14465e-16 -4.14465e-16 3.53823e-16 3.53823e-16 -3.00224e-16 -3.00224e-16 2.53885e-16 2.53885e-16 -2.14721e-16 -2.14721e-16 1.824e-16 1.824e-16 -1.56399e-16 -1.56399e-16 1.36059e-16 1.36059e-16 -1.20632e-16 -1.20632e-16 1.09332e-16 1.09332e-16 -1.01367e-16 -1.01367e-16 9.59758e-17 9.59758e-17 -9.24495e-17 -9.24495e-17 9.0151e-17 9.0151e-17 -8.8526e-17 -8.8526e-17 8.71096e-17 8.71096e-17 -8.55279e-17 -8.55279e-17 8.34957e-17 8.34957e-17 -8.08125e-17 -8.08125e-17 7.73548e-17 7.73548e-17 -7.30677e-17 -7.30677e-17 6.79564e-17 6.79564e-17 -6.20755e-17 -6.20755e-17 5.55203e-17 5.55203e-17 -4.84165e-17 -4.84165e-17 4.09119e-17 4.09119e-17 -3.31674e-17 -3.31674e-17 2.53499e-17 2.53499e-17 -1.7625e-17 -1.7625e-17 1.01508e-17 1.01508e-17 -3.07336e-18 -3.07336e-18 -3.47829e-18 -3.47829e-18 9.39517e-18 9.39517e-18 -1.45908e-17 -1.45908e-17 1.90029e-17 1.90029e-17 -2.25938e-17 -2.25938e-17 2.53503e-17 2.53503e-17 -2.72827e-17 -2.72827e-17 2.8423e-17 2.8423e-17 -2.88225e-17 -2.88225e-17 2.85488e-17 2.85488e-17 -2.76829e-17 -2.76829e-17 2.63153e-17 2.63153e-17 -2.45427e-17 -2.45427e-17 2.2464e-17 2.2464e-17 -2.01774e-17 -2.01774e-17 1.77769e-17 1.77769e-17 -1.53496e-17 -1.53496e-17 1.29736e-17 1.29736e-17 -1.07158e-17 -1.07158e-17 8.63123e-18 8.63123e-18 -6.76203e-18 -6.76203e-18 5.13731e-18 5.13731e-18 -3.77364e-18 -3.77364e-18 2.67579e-18 2.67579e-18 -1.83789e-18 -1.83789e-18 1.24495e-18 1.24495e-18 -8.74503e-19 -8.74503e-19 6.98363e-19 6.98363e-19 -6.84486e-19 -6.84486e-19 7.98721e-19 7.98721e-19 -1.00646e-18 -1.00646e-18 1.27415e-18 1.27415e-18 -1.57052e-18 -1.57052e-18 1.86763e-18 1.86763e-18 -2.14164e-18 -2.14164e-18 2.37329e-18 2.37329e-18 -2.54813e-18 -2.54813e-18 2.65658e-18 2.65658e-18 -2.69366e-18 -2.69366e-18 2.65866e-18 2.65866e-18 -2.55461e-18 -2.55461e-18 2.38764e-18 2.38764e-18 -2.16638e-18 -2.16638e-18 1.90117e-18 1.90117e-18 -1.60345e-18 -1.60345e-18 1.28508e-18 1.28508e-18 -9.57774e-19 -9.57774e-19 6.32576e-19 6.32576e-19 -3.19477e-19 -3.19477e-19 2.70854e-20 2.70854e-20 2.37572e-19 2.37572e-19 -4.6917e-19 -4.6917e-19 6.6411e-19 6.6411e-19 -8.20468e-19 -8.20468e-19 9.37877e-19 9.37877e-19 -1.01736e-18 -1.01736e-18 1.06111e-18 1.06111e-18 -1.0723e-18 -1.0723e-18 1.05479e-18 1.05479e-18 -1.01291e-18 -1.01291e-18 9.51276e-19 9.51276e-19 -8.74511e-19 -8.74511e-19 7.87117e-19 7.87117e-19 -6.9331e-19 -6.9331e-19 5.96903e-19 5.96903e-19 -5.01221e-19 -5.01221e-19 4.09052e-19 4.09052e-19 -3.22624e-19 -3.22624e-19 2.43604e-19 2.43604e-19 -1.73128e-19 -1.73128e-19 1.11842e-19 1.11842e-19 -5.99546e-20 -5.99546e-20 1.73084e-20 1.73084e-20 1.65561e-20 1.65561e-20 -4.23285e-20 -4.23285e-20 6.08606e-20 6.08606e-20 -7.31033e-20 -7.31033e-20 8.00506e-20 8.00506e-20 -8.26911e-20 -8.26911e-20 8.19686e-20 8.19686e-20 -7.87519e-20 -7.87519e-20 7.38132e-20 7.38132e-20 -6.78148e-20 -6.78148e-20 6.13034e-20 6.13034e-20 -5.47105e-20 -5.47105e-20 4.8358e-20 4.8358e-20 -4.24681e-20 -4.24681e-20 3.7175e-20 3.7175e-20 -3.25399e-20 -3.25399e-20 2.85649e-20 2.85649e-20 -2.52083e-20 -2.52083e-20 2.23976e-20 2.23976e-20 -2.00427e-20 -2.00427e-20 1.80458e-20 1.80458e-20 -1.63107e-20 -1.63107e-20 1.47491e-20 1.47491e-20 -1.32857e-20 -1.32857e-20 1.18607e-20 1.18607e-20 -1.04315e-20 -1.04315e-20 8.9725e-21 8.9725e-21 -7.47361e-21 -7.47361e-21 5.93859e-21 5.93859e-21 -4.38232e-21 -4.38232e-21 2.82794e-21 2.82794e-21 -1.30393e-21 -1.30393e-21 -1.58692e-22 -1.58692e-22 1.52895e-21 1.52895e-21 -2.77808e-21 -2.77808e-21 3.88128e-21 3.88128e-21 -4.81898e-21 -4.81898e-21 5.57765e-21 5.57765e-21 -6.1502e-21 -6.1502e-21 6.53585e-21 6.53585e-21 -6.73987e-21 -6.73987e-21 6.77284e-21 6.77284e-21 -6.64985e-21 -6.64985e-21 6.38951e-21 6.38951e-21 -6.01291e-21 -6.01291e-21 5.54262e-21 5.54262e-21 -5.00166e-21 -5.00166e-21 4.41265e-21 4.41265e-21 -3.79702e-21 -3.79702e-21 3.17439e-21 3.17439e-21 -2.56208e-21 -2.56208e-21 1.97484e-21 1.97484e-21 -1.42461e-21 -1.42461e-21 9.20508e-22 9.20508e-22 -4.6892e-22 -4.6892e-22 7.36448e-23 7.36448e-23 2.63846e-22 2.63846e-22 -5.44106e-22 -5.44106e-22 7.69382e-22 7.69382e-22 -9.43263e-22 -9.43263e-22 1.07034e-21 1.07034e-21 -1.15585e-21 -1.15585e-21 1.20543e-21 1.20543e-21 -1.22479e-21 -1.22479e-21 1.21952e-21 1.21952e-21 -1.19491e-21 -1.19491e-21 1.15578e-21 1.15578e-21 -1.10644e-21 -1.10644e-21 1.05059e-21 1.05059e-21 -9.91316e-22 -9.91316e-22 9.31088e-22 9.31088e-22 -8.71798e-22 -8.71798e-22 8.1481e-22 8.1481e-22 -7.61017e-22 -7.61017e-22 7.10917e-22 7.10917e-22 -6.64677e-22 -6.64677e-22 6.22212e-22 6.22212e-22 -5.83252e-22 -5.83252e-22 5.47401e-22 5.47401e-22 -5.14194e-22 -5.14194e-22 4.83143e-22 4.83143e-22 -4.53774e-22 -4.53774e-22 4.25652e-22 4.25652e-22 -3.98404e-22 -3.98404e-22 3.71732e-22 3.71732e-22 -3.45411e-22 -3.45411e-22 3.19298e-22 3.19298e-22 -2.93321e-22 -2.93321e-22 2.67476e-22 2.67476e-22 -2.4181e-22 -2.4181e-22 2.16419e-22 2.16419e-22 -1.91428e-22 -1.91428e-22 1.66986e-22 1.66986e-22 -1.4325e-22 -1.4325e-22 1.20381e-22 1.20381e-22 -9.85327e-23 -9.85327e-23 7.78445e-23 7.78445e-23 -5.84391e-23 -5.84391e-23 4.04173e-23 4.04173e-23 -2.38568e-23 -2.38568e-23 8.81094e-24 8.81094e-24 4.69108e-24 4.69108e-24 -1.6643e-23 -1.6643e-23 2.706e-23 2.706e-23 -3.59766e-23 -3.59766e-23 4.34442e-23 4.34442e-23 -4.95286e-23 -4.95286e-23 5.43077e-23 5.43077e-23 -5.78686e-23 -5.78686e-23 6.03054e-23 6.03054e-23 -6.17173e-23 -6.17173e-23 6.22063e-23 6.22063e-23 -6.18756e-23 -6.18756e-23 6.08279e-23 6.08279e-23 -5.91643e-23 -5.91643e-23 5.6983e-23 5.6983e-23 -5.43781e-23 -5.43781e-23 5.14395e-23 5.14395e-23 -4.82511e-23 -4.82511e-23 4.48913e-23 4.48913e-23 -4.1432e-23 -4.1432e-23 3.79382e-23 3.79382e-23 -3.44681e-23 -3.44681e-23 3.10726e-23 3.10726e-23 -2.77956e-23 -2.77956e-23 2.46736e-23 2.46736e-23 -2.17363e-23 -2.17363e-23 1.90064e-23 1.90064e-23 -1.65001e-23 -1.65001e-23 1.42276e-23 1.42276e-23 -1.21932e-23 -1.21932e-23 1.03961e-23 1.03961e-23 -8.83092e-24 -8.83092e-24 7.48817e-24 7.48817e-24 -6.35505e-24 -6.35505e-24 5.41599e-24 5.41599e-24 -4.65339e-24 -4.65339e-24 4.04816e-24 4.04816e-24 -3.58041e-24 -3.58041e-24 3.22998e-24 3.22998e-24 -2.97699e-24 -2.97699e-24 2.80226e-24 2.80226e-24 -2.68774e-24 -2.68774e-24 2.61683e-24 2.61683e-24 -2.57462e-24 -2.57462e-24 2.54807e-24 2.54807e-24 -2.52614e-24 -2.52614e-24 2.49979e-24 2.49979e-24 -2.46201e-24 -2.46201e-24 2.4077e-24 2.4077e-24 -2.33357e-24 -2.33357e-24 2.23797e-24 2.23797e-24 -2.12071e-24 -2.12071e-24 1.98284e-24 1.98284e-24 -1.82643e-24 -1.82643e-24 1.65435e-24 1.65435e-24 -1.47005e-24 -1.47005e-24 1.27731e-24 1.27731e-24 -1.08012e-24 -1.08012e-24 8.82432e-25 8.82432e-25 -6.88038e-25 -6.88038e-25 5.00447e-25 5.00447e-25 -3.22778e-25 -3.22778e-25 1.57683e-25 1.57683e-25 -7.30319e-27 -7.30319e-27 -1.26756e-25 -1.26756e-25 2.43429e-25 2.43429e-25 -3.42174e-25 -3.42174e-25 4.22936e-25 4.22936e-25 -4.86109e-25 -4.86109e-25 5.3247e-25 5.3247e-25 -5.63127e-25 -5.63127e-25 5.79446e-25 5.79446e-25 -5.82987e-25 -5.82987e-25 5.75438e-25 5.75438e-25 -5.58551e-25 -5.58551e-25 5.3409e-25 5.3409e-25 -5.03774e-25 -5.03774e-25 4.69239e-25 4.69239e-25 -4.32001e-25 -4.32001e-25 3.93426e-25 3.93426e-25 -3.54716e-25 -3.54716e-25 3.16892e-25 3.16892e-25 -2.80792e-25 -2.80792e-25 2.47072e-25 2.47072e-25 -2.16213e-25 -2.16213e-25 1.88532e-25 1.88532e-25 -1.64196e-25 -1.64196e-25 1.43243e-25 1.43243e-25 -1.25594e-25 -1.25594e-25 1.11082e-25 1.11082e-25 -9.94641e-26 -9.94641e-26 9.0446e-26 9.0446e-26 -8.36973e-26 -8.36973e-26 7.88692e-26 7.88692e-26 -7.56094e-26 -7.56094e-26 7.35743e-26 7.35743e-26 -7.24396e-26 -7.24396e-26 7.19082e-26 7.19082e-26 -7.17164e-26 -7.17164e-26 7.16377e-26 7.16377e-26 -7.14849e-26 -7.14849e-26 7.11101e-26 7.11101e-26 -7.0404e-26 -7.0404e-26 6.92933e-26 6.92933e-26 -6.77378e-26 -6.77378e-26 6.57263e-26 6.57263e-26 -6.32724e-26 -6.32724e-26 6.041e-26 6.041e-26 -5.71887e-26 -5.71887e-26 5.36695e-26 5.36695e-26 -4.99205e-26 -4.99205e-26 4.60135e-26 4.60135e-26 -4.20203e-26 -4.20203e-26 3.80104e-26 3.80104e-26 -3.4048e-26 -3.4048e-26 3.01911e-26 3.01911e-26 -2.64897e-26 -2.64897e-26 2.29852e-26 2.29852e-26 -1.97102e-26 -1.97102e-26 1.66882e-26 1.66882e-26 -1.39344e-26 -1.39344e-26 1.14559e-26 1.14559e-26 -9.25256e-27 -9.25256e-27 7.31832e-27 7.31832e-27 -5.64174e-27 -5.64174e-27 4.20729e-27 4.20729e-27 -2.99632e-27 -2.99632e-27 1.98808e-27 1.98808e-27 -1.16058e-27 -1.16058e-27 4.91496e-28 4.91496e-28 4.12075e-29 4.12075e-29 -4.58638e-28 -4.58638e-28 7.8052e-28 7.8052e-28 -1.02485e-27 -1.02485e-27 1.20765e-27 1.20765e-27 -1.34286e-27 -1.34286e-27 1.44225e-27 1.44225e-27 -1.51553e-27 -1.51553e-27 1.57039e-27 1.57039e-27 -1.6127e-27 -1.6127e-27 1.64669e-27 1.64669e-27 -1.67515e-27 -1.67515e-27 1.6997e-27 1.6997