# vtk DataFile Version 3.0
#This file was generated by the deal.II library on 2020/8/11 at 22:17:44
ASCII
DATASET UNSTRUCTURED_GRID

POINTS 4096 double
0.5 0 0
0.743896 0 0
0.743896 0 0
0.987793 0 0
0.987793 0 0
1.23169 0 0
1.23169 0 0
1.47559 0 0
1.47559 0 0
1.71948 0 0
1.71948 0 0
1.96338 0 0
1.96338 0 0
2.20728 0 0
2.20728 0 0
2.45117 0 0
2.45117 0 0
2.69507 0 0
2.69507 0 0
2.93896 0 0
2.93896 0 0
3.18286 0 0
3.18286 0 0
3.42676 0 0
3.42676 0 0
3.67065 0 0
3.67065 0 0
3.91455 0 0
3.91455 0 0
4.15845 0 0
4.15845 0 0
4.40234 0 0
4.40234 0 0
4.64624 0 0
4.64624 0 0
4.89014 0 0
4.89014 0 0
5.13403 0 0
5.13403 0 0
5.37793 0 0
5.37793 0 0
5.62183 0 0
5.62183 0 0
5.86572 0 0
5.86572 0 0
6.10962 0 0
6.10962 0 0
6.35352 0 0
6.35352 0 0
6.59741 0 0
6.59741 0 0
6.84131 0 0
6.84131 0 0
7.08521 0 0
7.08521 0 0
7.3291 0 0
7.3291 0 0
7.573 0 0
7.573 0 0
7.81689 0 0
7.81689 0 0
8.06079 0 0
8.06079 0 0
8.30469 0 0
8.30469 0 0
8.54858 0 0
8.54858 0 0
8.79248 0 0
8.79248 0 0
9.03638 0 0
9.03638 0 0
9.28027 0 0
9.28027 0 0
9.52417 0 0
9.52417 0 0
9.76807 0 0
9.76807 0 0
10.012 0 0
10.012 0 0
10.2559 0 0
10.2559 0 0
10.4998 0 0
10.4998 0 0
10.7437 0 0
10.7437 0 0
10.9875 0 0
10.9875 0 0
11.2314 0 0
11.2314 0 0
11.4753 0 0
11.4753 0 0
11.7192 0 0
11.7192 0 0
11.9631 0 0
11.9631 0 0
12.207 0 0
12.207 0 0
12.4509 0 0
12.4509 0 0
12.6948 0 0
12.6948 0 0
12.9387 0 0
12.9387 0 0
13.1826 0 0
13.1826 0 0
13.4265 0 0
13.4265 0 0
13.6704 0 0
13.6704 0 0
13.9143 0 0
13.9143 0 0
14.1582 0 0
14.1582 0 0
14.4021 0 0
14.4021 0 0
14.646 0 0
14.646 0 0
14.8899 0 0
14.8899 0 0
15.1338 0 0
15.1338 0 0
15.3777 0 0
15.3777 0 0
15.6216 0 0
15.6216 0 0
15.8655 0 0
15.8655 0 0
16.1094 0 0
16.1094 0 0
16.3533 0 0
16.3533 0 0
16.5972 0 0
16.5972 0 0
16.8411 0 0
16.8411 0 0
17.085 0 0
17.085 0 0
17.3289 0 0
17.3289 0 0
17.5728 0 0
17.5728 0 0
17.8167 0 0
17.8167 0 0
18.0605 0 0
18.0605 0 0
18.3044 0 0
18.3044 0 0
18.5483 0 0
18.5483 0 0
18.7922 0 0
18.7922 0 0
19.0361 0 0
19.0361 0 0
19.28 0 0
19.28 0 0
19.5239 0 0
19.5239 0 0
19.7678 0 0
19.7678 0 0
20.0117 0 0
20.0117 0 0
20.2556 0 0
20.2556 0 0
20.4995 0 0
20.4995 0 0
20.7434 0 0
20.7434 0 0
20.9873 0 0
20.9873 0 0
21.2312 0 0
21.2312 0 0
21.4751 0 0
21.4751 0 0
21.719 0 0
21.719 0 0
21.9629 0 0
21.9629 0 0
22.2068 0 0
22.2068 0 0
22.4507 0 0
22.4507 0 0
22.6946 0 0
22.6946 0 0
22.9385 0 0
22.9385 0 0
23.1824 0 0
23.1824 0 0
23.4263 0 0
23.4263 0 0
23.6702 0 0
23.6702 0 0
23.9141 0 0
23.9141 0 0
24.158 0 0
24.158 0 0
24.4019 0 0
24.4019 0 0
24.6458 0 0
24.6458 0 0
24.8896 0 0
24.8896 0 0
25.1335 0 0
25.1335 0 0
25.3774 0 0
25.3774 0 0
25.6213 0 0
25.6213 0 0
25.8652 0 0
25.8652 0 0
26.1091 0 0
26.1091 0 0
26.353 0 0
26.353 0 0
26.5969 0 0
26.5969 0 0
26.8408 0 0
26.8408 0 0
27.0847 0 0
27.0847 0 0
27.3286 0 0
27.3286 0 0
27.5725 0 0
27.5725 0 0
27.8164 0 0
27.8164 0 0
28.0603 0 0
28.0603 0 0
28.3042 0 0
28.3042 0 0
28.5481 0 0
28.5481 0 0
28.792 0 0
28.792 0 0
29.0359 0 0
29.0359 0 0
29.2798 0 0
29.2798 0 0
29.5237 0 0
29.5237 0 0
29.7676 0 0
29.7676 0 0
30.0115 0 0
30.0115 0 0
30.2554 0 0
30.2554 0 0
30.4993 0 0
30.4993 0 0
30.7432 0 0
30.7432 0 0
30.9871 0 0
30.9871 0 0
31.231 0 0
31.231 0 0
31.4749 0 0
31.4749 0 0
31.7188 0 0
31.7188 0 0
31.9626 0 0
31.9626 0 0
32.2065 0 0
32.2065 0 0
32.4504 0 0
32.4504 0 0
32.6943 0 0
32.6943 0 0
32.9382 0 0
32.9382 0 0
33.1821 0 0
33.1821 0 0
33.426 0 0
33.426 0 0
33.6699 0 0
33.6699 0 0
33.9138 0 0
33.9138 0 0
34.1577 0 0
34.1577 0 0
34.4016 0 0
34.4016 0 0
34.6455 0 0
34.6455 0 0
34.8894 0 0
34.8894 0 0
35.1333 0 0
35.1333 0 0
35.3772 0 0
35.3772 0 0
35.6211 0 0
35.6211 0 0
35.865 0 0
35.865 0 0
36.1089 0 0
36.1089 0 0
36.3528 0 0
36.3528 0 0
36.5967 0 0
36.5967 0 0
36.8406 0 0
36.8406 0 0
37.0845 0 0
37.0845 0 0
37.3284 0 0
37.3284 0 0
37.5723 0 0
37.5723 0 0
37.8162 0 0
37.8162 0 0
38.0601 0 0
38.0601 0 0
38.304 0 0
38.304 0 0
38.5479 0 0
38.5479 0 0
38.7917 0 0
38.7917 0 0
39.0356 0 0
39.0356 0 0
39.2795 0 0
39.2795 0 0
39.5234 0 0
39.5234 0 0
39.7673 0 0
39.7673 0 0
40.0112 0 0
40.0112 0 0
40.2551 0 0
40.2551 0 0
40.499 0 0
40.499 0 0
40.7429 0 0
40.7429 0 0
40.9868 0 0
40.9868 0 0
41.2307 0 0
41.2307 0 0
41.4746 0 0
41.4746 0 0
41.7185 0 0
41.7185 0 0
41.9624 0 0
41.9624 0 0
42.2063 0 0
42.2063 0 0
42.4502 0 0
42.4502 0 0
42.6941 0 0
42.6941 0 0
42.938 0 0
42.938 0 0
43.1819 0 0
43.1819 0 0
43.4258 0 0
43.4258 0 0
43.6697 0 0
43.6697 0 0
43.9136 0 0
43.9136 0 0
44.1575 0 0
44.1575 0 0
44.4014 0 0
44.4014 0 0
44.6453 0 0
44.6453 0 0
44.8892 0 0
44.8892 0 0
45.1331 0 0
45.1331 0 0
45.377 0 0
45.377 0 0
45.6208 0 0
45.6208 0 0
45.8647 0 0
45.8647 0 0
46.1086 0 0
46.1086 0 0
46.3525 0 0
46.3525 0 0
46.5964 0 0
46.5964 0 0
46.8403 0 0
46.8403 0 0
47.0842 0 0
47.0842 0 0
47.3281 0 0
47.3281 0 0
47.572 0 0
47.572 0 0
47.8159 0 0
47.8159 0 0
48.0598 0 0
48.0598 0 0
48.3037 0 0
48.3037 0 0
48.5476 0 0
48.5476 0 0
48.7915 0 0
48.7915 0 0
49.0354 0 0
49.0354 0 0
49.2793 0 0
49.2793 0 0
49.5232 0 0
49.5232 0 0
49.7671 0 0
49.7671 0 0
50.011 0 0
50.011 0 0
50.2549 0 0
50.2549 0 0
50.4988 0 0
50.4988 0 0
50.7427 0 0
50.7427 0 0
50.9866 0 0
50.9866 0 0
51.2305 0 0
51.2305 0 0
51.4744 0 0
51.4744 0 0
51.7183 0 0
51.7183 0 0
51.9622 0 0
51.9622 0 0
52.2061 0 0
52.2061 0 0
52.45 0 0
52.45 0 0
52.6938 0 0
52.6938 0 0
52.9377 0 0
52.9377 0 0
53.1816 0 0
53.1816 0 0
53.4255 0 0
53.4255 0 0
53.6694 0 0
53.6694 0 0
53.9133 0 0
53.9133 0 0
54.1572 0 0
54.1572 0 0
54.4011 0 0
54.4011 0 0
54.645 0 0
54.645 0 0
54.8889 0 0
54.8889 0 0
55.1328 0 0
55.1328 0 0
55.3767 0 0
55.3767 0 0
55.6206 0 0
55.6206 0 0
55.8645 0 0
55.8645 0 0
56.1084 0 0
56.1084 0 0
56.3523 0 0
56.3523 0 0
56.5962 0 0
56.5962 0 0
56.8401 0 0
56.8401 0 0
57.084 0 0
57.084 0 0
57.3279 0 0
57.3279 0 0
57.5718 0 0
57.5718 0 0
57.8157 0 0
57.8157 0 0
58.0596 0 0
58.0596 0 0
58.3035 0 0
58.3035 0 0
58.5474 0 0
58.5474 0 0
58.7913 0 0
58.7913 0 0
59.0352 0 0
59.0352 0 0
59.2791 0 0
59.2791 0 0
59.5229 0 0
59.5229 0 0
59.7668 0 0
59.7668 0 0
60.0107 0 0
60.0107 0 0
60.2546 0 0
60.2546 0 0
60.4985 0 0
60.4985 0 0
60.7424 0 0
60.7424 0 0
60.9863 0 0
60.9863 0 0
61.2302 0 0
61.2302 0 0
61.4741 0 0
61.4741 0 0
61.718 0 0
61.718 0 0
61.9619 0 0
61.9619 0 0
62.2058 0 0
62.2058 0 0
62.4497 0 0
62.4497 0 0
62.6936 0 0
62.6936 0 0
62.9375 0 0
62.9375 0 0
63.1814 0 0
63.1814 0 0
63.4253 0 0
63.4253 0 0
63.6692 0 0
63.6692 0 0
63.9131 0 0
63.9131 0 0
64.157 0 0
64.157 0 0
64.4009 0 0
64.4009 0 0
64.6448 0 0
64.6448 0 0
64.8887 0 0
64.8887 0 0
65.1326 0 0
65.1326 0 0
65.3765 0 0
65.3765 0 0
65.6204 0 0
65.6204 0 0
65.8643 0 0
65.8643 0 0
66.1082 0 0
66.1082 0 0
66.3521 0 0
66.3521 0 0
66.5959 0 0
66.5959 0 0
66.8398 0 0
66.8398 0 0
67.0837 0 0
67.0837 0 0
67.3276 0 0
67.3276 0 0
67.5715 0 0
67.5715 0 0
67.8154 0 0
67.8154 0 0
68.0593 0 0
68.0593 0 0
68.3032 0 0
68.3032 0 0
68.5471 0 0
68.5471 0 0
68.791 0 0
68.791 0 0
69.0349 0 0
69.0349 0 0
69.2788 0 0
69.2788 0 0
69.5227 0 0
69.5227 0 0
69.7666 0 0
69.7666 0 0
70.0105 0 0
70.0105 0 0
70.2544 0 0
70.2544 0 0
70.4983 0 0
70.4983 0 0
70.7422 0 0
70.7422 0 0
70.9861 0 0
70.9861 0 0
71.23 0 0
71.23 0 0
71.4739 0 0
71.4739 0 0
71.7178 0 0
71.7178 0 0
71.9617 0 0
71.9617 0 0
72.2056 0 0
72.2056 0 0
72.4495 0 0
72.4495 0 0
72.6934 0 0
72.6934 0 0
72.9373 0 0
72.9373 0 0
73.1812 0 0
73.1812 0 0
73.425 0 0
73.425 0 0
73.6689 0 0
73.6689 0 0
73.9128 0 0
73.9128 0 0
74.1567 0 0
74.1567 0 0
74.4006 0 0
74.4006 0 0
74.6445 0 0
74.6445 0 0
74.8884 0 0
74.8884 0 0
75.1323 0 0
75.1323 0 0
75.3762 0 0
75.3762 0 0
75.6201 0 0
75.6201 0 0
75.864 0 0
75.864 0 0
76.1079 0 0
76.1079 0 0
76.3518 0 0
76.3518 0 0
76.5957 0 0
76.5957 0 0
76.8396 0 0
76.8396 0 0
77.0835 0 0
77.0835 0 0
77.3274 0 0
77.3274 0 0
77.5713 0 0
77.5713 0 0
77.8152 0 0
77.8152 0 0
78.0591 0 0
78.0591 0 0
78.303 0 0
78.303 0 0
78.5469 0 0
78.5469 0 0
78.7908 0 0
78.7908 0 0
79.0347 0 0
79.0347 0 0
79.2786 0 0
79.2786 0 0
79.5225 0 0
79.5225 0 0
79.7664 0 0
79.7664 0 0
80.0103 0 0
80.0103 0 0
80.2542 0 0
80.2542 0 0
80.498 0 0
80.498 0 0
80.7419 0 0
80.7419 0 0
80.9858 0 0
80.9858 0 0
81.2297 0 0
81.2297 0 0
81.4736 0 0
81.4736 0 0
81.7175 0 0
81.7175 0 0
81.9614 0 0
81.9614 0 0
82.2053 0 0
82.2053 0 0
82.4492 0 0
82.4492 0 0
82.6931 0 0
82.6931 0 0
82.937 0 0
82.937 0 0
83.1809 0 0
83.1809 0 0
83.4248 0 0
83.4248 0 0
83.6687 0 0
83.6687 0 0
83.9126 0 0
83.9126 0 0
84.1565 0 0
84.1565 0 0
84.4004 0 0
84.4004 0 0
84.6443 0 0
84.6443 0 0
84.8882 0 0
84.8882 0 0
85.1321 0 0
85.1321 0 0
85.376 0 0
85.376 0 0
85.6199 0 0
85.6199 0 0
85.8638 0 0
85.8638 0 0
86.1077 0 0
86.1077 0 0
86.3516 0 0
86.3516 0 0
86.5955 0 0
86.5955 0 0
86.8394 0 0
86.8394 0 0
87.0833 0 0
87.0833 0 0
87.3271 0 0
87.3271 0 0
87.571 0 0
87.571 0 0
87.8149 0 0
87.8149 0 0
88.0588 0 0
88.0588 0 0
88.3027 0 0
88.3027 0 0
88.5466 0 0
88.5466 0 0
88.7905 0 0
88.7905 0 0
89.0344 0 0
89.0344 0 0
89.2783 0 0
89.2783 0 0
89.5222 0 0
89.5222 0 0
89.7661 0 0
89.7661 0 0
90.01 0 0
90.01 0 0
90.2539 0 0
90.2539 0 0
90.4978 0 0
90.4978 0 0
90.7417 0 0
90.7417 0 0
90.9856 0 0
90.9856 0 0
91.2295 0 0
91.2295 0 0
91.4734 0 0
91.4734 0 0
91.7173 0 0
91.7173 0 0
91.9612 0 0
91.9612 0 0
92.2051 0 0
92.2051 0 0
92.449 0 0
92.449 0 0
92.6929 0 0
92.6929 0 0
92.9368 0 0
92.9368 0 0
93.1807 0 0
93.1807 0 0
93.4246 0 0
93.4246 0 0
93.6685 0 0
93.6685 0 0
93.9124 0 0
93.9124 0 0
94.1562 0 0
94.1562 0 0
94.4001 0 0
94.4001 0 0
94.644 0 0
94.644 0 0
94.8879 0 0
94.8879 0 0
95.1318 0 0
95.1318 0 0
95.3757 0 0
95.3757 0 0
95.6196 0 0
95.6196 0 0
95.8635 0 0
95.8635 0 0
96.1074 0 0
96.1074 0 0
96.3513 0 0
96.3513 0 0
96.5952 0 0
96.5952 0 0
96.8391 0 0
96.8391 0 0
97.083 0 0
97.083 0 0
97.3269 0 0
97.3269 0 0
97.5708 0 0
97.5708 0 0
97.8147 0 0
97.8147 0 0
98.0586 0 0
98.0586 0 0
98.3025 0 0
98.3025 0 0
98.5464 0 0
98.5464 0 0
98.7903 0 0
98.7903 0 0
99.0342 0 0
99.0342 0 0
99.2781 0 0
99.2781 0 0
99.522 0 0
99.522 0 0
99.7659 0 0
99.7659 0 0
100.01 0 0
100.01 0 0
100.254 0 0
100.254 0 0
100.498 0 0
100.498 0 0
100.741 0 0
100.741 0 0
100.985 0 0
100.985 0 0
101.229 0 0
101.229 0 0
101.473 0 0
[...]
POINT_DATA 4096
SCALARS solution_0 double 1
LOOKUP_TABLE default
2.5794e-09 -1.15365e+06 -1.15365e+06 -454595 -454595 -296704 -296704 -219319 -219319 -171631 -171631 -138788 -138788 -114649 -114649 -96136.6 -96136.6 -81513.3 -81513.3 -69708.3 -69708.3 -60019.8 -60019.8 -51964.5 -51964.5 -45197.4 -45197.4 -39464.1 -39464.1 -34572.2 -34572.2 -30373.4 -30373.4 -26751.2 -26751.2 -23612.9 -23612.9 -20883.4 -20883.4 -18501.7 -18501.7 -16417.3 -16417.3 -14588.3 -14588.3 -12979.8 -12979.8 -11562.2 -11562.2 -10310.4 -10310.4 -9203.32 -9203.32 -8222.55 -8222.55 -7352.49 -7352.49 -6579.64 -6579.64 -5892.31 -5892.31 -5280.36 -5280.36 -4734.97 -4734.97 -4248.43 -4248.43 -3814.02 -3814.02 -3425.82 -3425.82 -3078.66 -3078.66 -2767.98 -2767.98 -2489.74 -2489.74 -2240.41 -2240.41 -2016.85 -2016.85 -1816.28 -1816.28 -1636.25 -1636.25 -1474.56 -1474.56 -1329.28 -1329.28 -1198.69 -1198.69 -1081.25 -1081.25 -975.588 -975.588 -880.493 -880.493 -794.874 -794.874 -717.759 -717.759 -648.281 -648.281 -585.663 -585.663 -529.211 -529.211 -478.301 -478.301 -432.378 -432.378 -390.941 -390.941 -353.542 -353.542 -319.78 -319.78 -289.293 -289.293 -261.758 -261.758 -236.882 -236.882 -214.405 -214.405 -194.091 -194.091 -175.728 -175.728 -159.125 -159.125 -144.111 -144.111 -130.532 -130.532 -118.247 -118.247 -107.133 -107.133 -97.0753 -97.0753 -87.9725 -87.9725 -79.7327 -79.7327 -72.2729 -72.2729 -65.5184 -65.5184 -59.4015 -59.4015 -53.8614 -53.8614 -48.843 -48.843 -44.2966 -44.2966 -40.1774 -40.1774 -36.4446 -36.4446 -33.0617 -33.0617 -29.9955 -29.9955 -27.2161 -27.2161 -24.6963 -24.6963 -22.4117 -22.4117 -20.3401 -20.3401 -18.4615 -18.4615 -16.7577 -16.7577 -15.2123 -15.2123 -13.8104 -13.8104 -12.5387 -12.5387 -11.3848 -11.3848 -10.3379 -10.3379 -9.38786 -9.38786 -8.52571 -8.52571 -7.74323 -7.74323 -7.03301 -7.03301 -6.3883 -6.3883 -5.80302 -5.80302 -5.27162 -5.27162 -4.78907 -4.78907 -4.35079 -4.35079 -3.95263 -3.95263 -3.59074 -3.59074 -3.26165 -3.26165 -2.9621 -2.9621 -2.6891 -2.6891 -2.43982 -2.43982 -2.21161 -2.21161 -2.00198 -2.00198 -1.80857 -1.80857 -1.62921 -1.62921 -1.46193 -1.46193 -1.30505 -1.30505 -1.15724 -1.15724 -1.01763 -1.01763 -0.885819 -0.885819 -0.76192 -0.76192 -0.646473 -0.646473 -0.540298 -0.540298 -0.444248 -0.444248 -0.358937 -0.358937 -0.284468 -0.284468 -0.220276 -0.220276 -0.165131 -0.165131 -0.117356 -0.117356 -0.0752298 -0.0752298 -0.0374645 -0.0374645 -0.00360455 -0.00360455 0.0258225 0.0258225 0.0495144 0.0495144 0.0659494 0.0659494 0.0741387 0.0741387 0.0743226 0.0743226 0.0683558 0.0683558 0.0596358 0.0596358 0.0526219 0.0526219 0.0521686 0.0521686 0.0629735 0.0629735 0.0893543 0.0893543 0.135369 0.135369 0.205088 0.205088 0.302741 0.302741 0.432583 0.432583 0.598525 0.598525 0.803745 0.803745 1.05046 1.05046 1.33982 1.33982 1.67149 1.67149 2.04263 2.04263 2.44602 2.44602 2.868 2.868 3.287 3.287 3.67396 3.67396 3.99503 3.99503 4.21624 4.21624 4.30897 4.30897 4.25483 4.25483 4.04891 4.04891 3.70088 3.70088 3.23434 3.23434 2.68453 2.68453 2.09484 2.09484 1.51203 1.51203 0.980666 0.980666 0.537098 0.537098 0.204263 0.204263 -0.0115523 -0.0115523 -0.120829 -0.120829 -0.14736 -0.14736 -0.121851 -0.121851 -0.0743369 -0.0743369 -0.0278161 -0.0278161 0.00492026 0.00492026 0.0206717 0.0206717 0.0225584 0.0225584 0.016178 0.016178 0.0068993 0.0068993 -0.00127297 -0.00127297 -0.00592769 -0.00592769 -0.00634515 -0.00634515 -0.00354506 -0.00354506 0.000192276 0.000192276 0.00254111 0.00254111 0.00247967 0.00247967 0.00076654 0.00076654 -0.000882826 -0.000882826 -0.00124462 -0.00124462 -0.00043644 -0.00043644 0.000479538 0.000479538 0.000630947 0.000630947 8.41762e-05 8.41762e-05 -0.000423523 -0.000423523 -0.000352519 -0.000352519 0.000118586 0.000118586 0.000399004 0.000399004 0.000188689 0.000188689 -0.000222257 -0.000222257 -0.000342408 -0.000342408 -5.82999e-05 -5.82999e-05 0.00026701 0.00026701 0.000252915 0.000252915 -5.31749e-05 -5.31749e-05 -0.000265023 -0.000265023 -0.000141888 -0.000141888 0.000135831 0.000135831 0.000218836 0.000218836 2.7522e-05 2.7522e-05 -0.000174382 -0.000174382 -0.000136878 -0.000136878 6.60925e-05 6.60925e-05 0.000160744 0.000160744 4.00756e-05 4.00756e-05 -0.000116286 -0.000116286 -0.000102925 -0.000102925 4.21376e-05 4.21376e-05 0.000113195 0.000113195 2.5917e-05 2.5917e-05 -8.42129e-05 -8.42129e-05 -6.72984e-05 -6.72984e-05 3.78799e-05 3.78799e-05 7.77826e-05 7.77826e-05 6.32852e-06 6.32852e-06 -6.4313e-05 -6.4313e-05 -3.67052e-05 -3.67052e-05 3.83052e-05 3.83052e-05 4.97678e-05 4.97678e-05 -1.04366e-05 -1.04366e-05 -4.79462e-05 -4.79462e-05 -1.20692e-05 -1.20692e-05 3.65205e-05 3.65205e-05 2.59726e-05 2.59726e-05 -2.10895e-05 -2.10895e-05 -3.12173e-05 -3.12173e-05 6.0612e-06 6.0612e-06 2.96443e-05 2.96443e-05 5.89015e-06 5.89015e-06 -2.37954e-05 -2.37954e-05 -1.37043e-05 -1.37043e-05 1.60777e-05 1.60777e-05 1.7493e-05 1.7493e-05 -8.32675e-06 -8.32675e-06 -1.80336e-05 -1.80336e-05 1.6869e-06 1.6869e-06 1.63463e-05 1.63463e-05 3.3125e-06 3.3125e-06 -1.34103e-05 -1.34103e-05 -6.59384e-06 -6.59384e-06 1.00139e-05 1.00139e-05 8.35584e-06 8.35584e-06 -6.70658e-06 -6.70658e-06 -8.92663e-06 -8.92663e-06 3.81403e-06 3.81403e-06 8.66031e-06 8.66031e-06 -1.48437e-06 -1.48437e-06 -7.87539e-06 -7.87539e-06 -2.58155e-07 -2.58155e-07 6.8263e-06 6.8263e-06 1.46436e-06 1.46436e-06 -5.6973e-06 -5.6973e-06 -2.22212e-06 -2.22212e-06 4.6091e-06 4.6091e-06 2.6301e-06 2.6301e-06 -3.6313e-06 -3.6313e-06 -2.78186e-06 -2.78186e-06 2.79603e-06 2.79603e-06 2.7576e-06 2.7576e-06 -2.11023e-06 -2.11023e-06 -2.62131e-06 -2.62131e-06 1.56548e-06 1.56548e-06 2.4211e-06 2.4211e-06 -1.14527e-06 -1.14527e-06 -2.19118e-06 -2.19118e-06 8.29952e-07 8.29952e-07 1.95449e-06 1.95449e-06 -5.99808e-07 -5.99808e-07 -1.7254e-06 -1.7254e-06 4.36768e-07 4.36768e-07 1.51203e-06 1.51203e-06 -3.25207e-07 -3.25207e-07 -1.31818e-06 -1.31818e-06 2.52157e-07 2.52157e-07 1.14486e-06 1.14486e-06 -2.07173e-07 -2.07173e-07 -9.91365e-07 -9.91365e-07 1.82038e-07 1.82038e-07 8.56054e-07 8.56054e-07 -1.70407e-07 -1.70407e-07 -7.36884e-07 -7.36884e-07 1.67456e-07 1.67456e-07 6.31738e-07 6.31738e-07 -1.69566e-07 -1.69566e-07 -5.3863e-07 -5.3863e-07 1.74058e-07 1.74058e-07 4.55814e-07 4.55814e-07 -1.78982e-07 -1.78982e-07 -3.81827e-07 -3.81827e-07 1.82949e-07 1.82949e-07 3.15502e-07 3.15502e-07 -1.85006e-07 -1.85006e-07 -2.55939e-07 -2.55939e-07 1.84541e-07 1.84541e-07 2.02482e-07 2.02482e-07 -1.81215e-07 -1.81215e-07 -1.54672e-07 -1.54672e-07 1.74911e-07 1.74911e-07 1.12205e-07 1.12205e-07 -1.6569e-07 -1.6569e-07 -7.48954e-08 -7.48954e-08 1.53763e-07 1.53763e-07 4.26285e-08 4.26285e-08 -1.39465e-07 -1.39465e-07 -1.53302e-08 -1.53302e-08 1.23233e-07 1.23233e-07 -7.0682e-09 -7.0682e-09 -1.05584e-07 -1.05584e-07 2.46582e-08 2.46582e-08 8.70986e-08 8.70986e-08 -3.75798e-08 -3.75798e-08 -6.83957e-08 -6.83957e-08 4.60438e-08 4.60438e-08 5.01122e-08 5.01122e-08 -5.03493e-08 -5.03493e-08 -3.28752e-08 -3.28752e-08 5.08959e-08 5.08959e-08 1.72722e-08 1.72722e-08 -4.81891e-08 -4.81891e-08 -3.81771e-09 -3.81771e-09 4.28361e-08 4.28361e-08 -7.08114e-09 -7.08114e-09 -3.55298e-08 -3.55298e-08 1.51579e-08 1.51579e-08 2.70215e-08 2.70215e-08 -2.03135e-08 -2.03135e-08 -1.80809e-08 -1.80809e-08 2.26332e-08 2.26332e-08 9.44724e-09 9.44724e-09 -2.23876e-08 -2.23876e-08 -1.77516e-09 -1.77516e-09 2.00159e-08 2.00159e-08 -4.41751e-09 -4.41751e-09 -1.60897e-08 -1.60897e-08 8.79295e-09 8.79295e-09 1.12596e-08 1.12596e-08 -1.12201e-08 -1.12201e-08 -6.19006e-09 -6.19006e-09 1.17794e-08 1.17794e-08 1.48961e-09 1.48961e-09 -1.07424e-08 -1.07424e-08 2.35241e-09 2.35241e-09 8.52826e-09 8.52826e-09 -5.01459e-09 -5.01459e-09 -5.64125e-09 -5.64125e-09 6.36891e-09 6.36891e-09 2.59912e-09 2.59912e-09 -6.47904e-09 -6.47904e-09 1.3744e-10 1.3744e-10 5.57151e-09 5.57151e-09 -2.22315e-09 -2.22315e-09 -3.98491e-09 -3.98491e-09 3.46511e-09 3.46511e-09 2.10566e-09 2.10566e-09 -3.83333e-09 -3.83333e-09 -3.01772e-10 -3.01772e-10 3.44412e-09 3.44412e-09 -1.13424e-09 -1.13424e-09 -2.52096e-09 -2.52096e-09 2.024e-09 2.024e-09 1.34107e-09 1.34107e-09 -2.31786e-09 -2.31786e-09 -1.78496e-10 -1.78496e-10 2.08481e-09 2.08481e-09 -7.45666e-10 -7.45666e-10 -1.48166e-09 -1.48166e-09 1.29705e-09 1.29705e-09 7.09254e-10 7.09254e-10 -1.44085e-09 -1.44085e-09 3.44061e-11 3.44061e-11 1.23309e-09 1.23309e-09 -5.94392e-10 -5.94392e-10 -7.94455e-10 -7.94455e-10 8.8482e-10 8.8482e-10 2.73814e-10 2.73814e-10 -8.9647e-10 -8.9647e-10 1.8951e-10 1.8951e-10 6.86346e-10 6.86346e-10 -4.96169e-10 -4.96169e-10 -3.53467e-10 -3.53467e-10 6.03739e-10 6.03739e-10 8.07277e-12 8.07277e-12 -5.2762e-10 -5.2762e-10 2.57626e-10 2.57626e-10 3.27473e-10 3.27473e-10 -3.90022e-10 -3.90022e-10 -8.4238e-11 -8.4238e-11 3.81712e-10 3.81712e-10 -1.25155e-10 -1.25155e-10 -2.65611e-10 -2.65611e-10 2.48312e-10 2.48312e-10 9.87959e-11 9.87959e-11 -2.67982e-10 -2.67982e-10 5.81271e-11 5.81271e-11 2.00943e-10 2.00943e-10 -1.59563e-10 -1.59563e-10 -8.69446e-11 -8.69446e-11 1.86107e-10 1.86107e-10 -2.76271e-11 -2.76271e-11 -1.45875e-10 -1.45875e-10 1.05596e-10 1.05596e-10 6.69005e-11 6.69005e-11 -1.29334e-10 -1.29334e-10 1.57146e-11 1.57146e-11 1.02976e-10 1.02976e-10 -7.28861e-11 -7.28861e-11 -4.69366e-11 -4.69366e-11 9.03821e-11 9.03821e-11 -1.22599e-11 -1.22599e-11 -7.09739e-11 -7.09739e-11 5.25479e-11 5.25479e-11 3.01599e-11 3.01599e-11 -6.34346e-11 -6.34346e-11 1.19832e-11 1.19832e-11 4.76003e-11 4.76003e-11 -3.91872e-11 -3.91872e-11 -1.72755e-11 -1.72755e-11 4.44141e-11 4.44141e-11 -1.23637e-11 -1.23637e-11 -3.07234e-11 -3.07234e-11 2.97221e-11 2.97221e-11 8.01344e-12 8.01344e-12 -3.06673e-11 -3.06673e-11 1.23521e-11 1.23521e-11 1.86685e-11 1.86685e-11 -2.24888e-11 -2.24888e-11 -1.79114e-12 -1.79114e-12 2.05431e-11 2.05431e-11 -1.16414e-11 -1.16414e-11 -1.02122e-11 -1.02122e-11 1.66475e-11 1.66475e-11 -2.01402e-12 -2.01402e-12 -1.30373e-11 -1.30373e-11 1.02772e-11 1.02772e-11 4.4771e-12 4.4771e-12 -1.18135e-11 -1.18135e-11 3.97346e-12 3.97346e-12 7.53467e-12 7.53467e-12 -8.45707e-12 -8.45707e-12 -8.19519e-13 -8.19519e-13 7.83662e-12 7.83662e-12 -4.58919e-12 -4.58919e-12 -3.6369e-12 -3.6369e-12 6.42767e-12 6.42767e-12 -1.25954e-12 -1.25954e-12 -4.67069e-12 -4.67069e-12 4.2983e-12 4.2983e-12 1.0526e-12 1.0526e-12 -4.4293e-12 -4.4293e-12 2.17411e-12 2.17411e-12 2.29487e-12 2.29487e-12 -3.47771e-12 -3.47771e-12 4.68565e-13 4.68565e-13 2.66189e-12 2.66189e-12 -2.28567e-12 -2.28567e-12 -6.68084e-13 -6.68084e-13 2.44163e-12 2.44163e-12 -1.16903e-12 -1.16903e-12 -1.26237e-12 -1.26237e-12 1.91254e-12 1.91254e-12 -2.93224e-13 -2.93224e-13 -1.43247e-12 -1.43247e-12 1.29113e-12 1.29113e-12 2.9226e-13 2.9226e-13 -1.32328e-12 -1.32328e-12 7.17206e-13 7.17206e-13 6.11158e-13 6.11158e-13 -1.06646e-12 -1.06646e-12 2.61952e-13 2.61952e-13 7.22872e-13 7.22872e-13 -7.61928e-13 -7.61928e-13 -5.41588e-14 -5.41588e-14 6.95537e-13 6.95537e-13 -4.74216e-13 -4.74216e-13 -2.42062e-13 -2.42062e-13 5.90086e-13 5.90086e-13 -2.37284e-13 -2.37284e-13 -3.28004e-13 -3.28004e-13 4.53147e-13 4.53147e-13 -6.26384e-14 -6.26384e-14 -3.42247e-13 -3.42247e-13 3.15849e-13 3.15849e-13 5.23676e-14 5.23676e-14 -3.12378e-13 -3.12378e-13 1.95891e-13 1.95891e-13 1.17709e-13 1.17709e-13 -2.60228e-13 -2.60228e-13 1.009e-13 1.009e-13 1.45848e-13 1.45848e-13 -2.0119e-13 -2.0119e-13 3.18555e-14 3.18555e-14 1.48774e-13 1.48774e-13 -1.44893e-13 -1.44893e-13 -1.40419e-14 -1.40419e-14 1.36505e-13 1.36505e-13 -9.64486e-14 -9.64486e-14 -4.1268e-14 -4.1268e-14 1.16598e-13 1.16598e-13 -5.77993e-14 -5.77993e-14 -5.4612e-14 -5.4612e-14 9.4248e-14 9.4248e-14 -2.88941e-14 -2.88941e-14 -5.84077e-14 -5.84077e-14 7.26869e-14 7.26869e-14 -8.59546e-15 -8.59546e-15 -5.61895e-14 -5.61895e-14 5.36617e-14 5.36617e-14 4.6884e-15 4.6884e-15 -5.06191e-14 -5.06191e-14 3.7893e-14 3.7893e-14 1.26074e-14 1.26074e-14 -4.3562e-14 -4.3562e-14 2.54528e-14 2.54528e-14 1.6651e-14 1.6651e-14 -3.62309e-14 -3.62309e-14 1.60477e-14 1.60477e-14 1.8052e-14 1.8052e-14 -2.93434e-14 -2.93434e-14 9.21603e-15 9.21603e-15 1.77672e-14 1.77672e-14 -2.32669e-14 -2.32669e-14 4.45282e-15 4.45282e-15 1.64991e-14 1.64991e-14 -1.81366e-14 -1.81366e-14 1.28159e-15 1.28159e-15 1.47378e-14 1.47378e-14 -1.39461e-14 -1.39461e-14 -7.10223e-16 -7.10223e-16 1.2807e-14 1.2807e-14 -1.06108e-14 -1.06108e-14 -1.85942e-15 -1.85942e-15 1.09066e-14 1.09066e-14 -8.01131e-15 -8.01131e-15 -2.42879e-15 -2.42879e-15 9.14938e-15 9.14938e-15 -6.01992e-15 -6.01992e-15 -2.61577e-15 -2.61577e-15 7.5892e-15 7.5892e-15 -4.51584e-15 -4.51584e-15 -2.56377e-15 -2.56377e-15 6.24244e-15 6.24244e-15 -3.39282e-15 -3.39282e-15 -2.37355e-15 -2.37355e-15 5.10315e-15 5.10315e-15 -2.56177e-15 -2.56177e-15 -2.11356e-15 -2.11356e-15 4.15337e-15 4.15337e-15 -1.95065e-15 -1.95065e-15 -1.82847e-15 -1.82847e-15 3.36992e-15 3.36992e-15 -1.50278e-15 -1.50278e-15 -1.54607e-15 -1.54607e-15 2.72846e-15 2.72846e-15 -1.17456e-15 -1.17456e-15 -1.28241e-15 -1.28241e-15 2.20588e-15 2.20588e-15 -9.33094e-16 -9.33094e-16 -1.04574e-15 -1.04574e-15 1.78147e-15 1.78147e-15 -7.53976e-16 -7.53976e-16 -8.39213e-16 -8.39213e-16 1.43732e-15 1.43732e-15 -6.19372e-16 -6.19372e-16 -6.62879e-16 -6.62879e-16 1.15839e-15 1.15839e-15 -5.16423e-16 -5.16423e-16 -5.14966e-16 -5.14966e-16 9.32261e-16 9.32261e-16 -4.35979e-16 -4.35979e-16 -3.92766e-16 -3.92766e-16 7.48805e-16 7.48805e-16 -3.71607e-16 -3.71607e-16 -2.93194e-16 -2.93194e-16 5.99838e-16 5.99838e-16 -3.18833e-16 -3.18833e-16 -2.13126e-16 -2.13126e-16 4.78783e-16 4.78783e-16 -2.7458e-16 -2.7458e-16 -1.49599e-16 -1.49599e-16 3.80367e-16 3.80367e-16 -2.36745e-16 -2.36745e-16 -9.99128e-17 -9.99128e-17 3.00366e-16 3.00366e-16 -2.03903e-16 -2.03903e-16 -6.16718e-17 -6.16718e-17 2.35388e-16 2.35388e-16 -1.75083e-16 -1.75083e-16 -3.27949e-17 -3.27949e-17 1.82702e-16 1.82702e-16 -1.49622e-16 -1.49622e-16 -1.15005e-17 -1.15005e-17 1.401e-16 1.401e-16 -1.27058e-16 -1.27058e-16 3.71826e-18 3.71826e-18 1.0579e-16 1.0579e-16 -1.07056e-16 -1.07056e-16 1.41231e-17 1.41231e-17 7.83083e-17 7.83083e-17 -8.93619e-17 -8.93619e-17 2.07615e-17 2.07615e-17 5.64558e-17 5.64558e-17 -7.37741e-17 -7.37741e-17 2.44967e-17 2.44967e-17 3.92435e-17 3.92435e-17 -6.01203e-17 -6.01203e-17 2.60357e-17 2.60357e-17 2.58527e-17 2.58527e-17 -4.82474e-17 -4.82474e-17 2.59535e-17 2.59535e-17 1.56025e-17 1.56025e-17 -3.80143e-17 -3.80143e-17 2.47155e-17 2.47155e-17 7.92386e-18 7.92386e-18 -2.9287e-17 -2.9287e-17 2.26958e-17 2.26958e-17 2.33913e-18 2.33913e-18 -2.19367e-17 -2.19367e-17 2.01932e-17 2.01932e-17 -1.55461e-18 -1.55461e-18 -1.58381e-17 -1.58381e-17 1.74438e-17 1.74438e-17 -4.09854e-18 -4.09854e-18 -1.08684e-17 -1.08684e-17 1.46315e-17 1.46315e-17 -5.58249e-18 -5.58249e-18 -6.90723e-18 -6.90723e-18 1.18966e-17 1.18966e-17 -6.25293e-18 -6.25293e-18 -3.83595e-18 -3.83595e-18 9.34246e-18 9.34246e-18 -6.31913e-18 -6.31913e-18 -1.5384e-18 -1.5384e-18 7.04085e-18 7.04085e-18 -5.95773e-18 -5.95773e-18 9.86765e-20 9.86765e-20 5.03655e-18 5.03655e-18 -5.31619e-18 -5.31619e-18 1.18456e-18 1.18456e-18 3.35141e-18 3.35141e-18 -4.51545e-18 -4.51545e-18 1.82327e-18 1.82327e-18 1.98798e-18 1.98798e-18 -3.65207e-18 -3.65207e-18 2.11202e-18 2.11202e-18 9.33048e-19 9.33048e-19 -2.80021e-18 -2.80021e-18 2.13966e-18 2.13966e-18 1.61178e-19 1.61178e-19 -2.01357e-18 -2.01357e-18 1.98523e-18 1.98523e-18 -3.61865e-19 -3.61865e-19 -1.32753e-18 -1.32753e-18 1.71676e-18 1.71676e-18 -6.75754e-19 -6.75754e-19 -7.61554e-19 -7.61554e-19 1.39051e-18 1.39051e-18 -8.22458e-19 -8.22458e-19 -3.21795e-19 -3.21795e-19 1.0507e-18 1.0507e-18 -8.43441e-19 -8.43441e-19 -3.84834e-21 -3.84834e-21 7.29839e-19 7.29839e-19 -7.77319e-19 -7.77319e-19 2.04403e-19 2.04403e-19 4.49555e-19 4.49555e-19 -6.5808e-19 -6.5808e-19 3.20061e-19 3.20061e-19 2.21859e-19 2.21859e-19 -5.13904e-19 -5.13904e-19 3.62712e-19 3.62712e-19 5.07964e-20 5.07964e-20 -3.66608e-19 -3.66608e-19 3.5229e-19 3.5229e-19 -6.57439e-20 -6.57439e-20 -2.3164e-19 -2.3164e-19 3.07388e-19 3.07388e-19 -1.34172e-19 -1.34172e-19 -1.18563e-19 -1.18563e-19 2.44069e-19 2.44069e-19 -1.63449e-19 -1.63449e-19 -3.18746e-20 -3.18746e-20 1.75164e-19 1.75164e-19 -1.6356e-19 -1.6356e-19 2.79465e-20 2.79465e-20 1.10027e-19 1.10027e-19 -1.44289e-19 -1.44289e-19 6.33176e-20 6.33176e-20 5.46594e-20 5.46594e-20 -1.14332e-19 -1.14332e-19 7.84611e-20 7.84611e-20 1.21106e-20 1.21106e-20 -8.07584e-20 -8.07584e-20 7.844e-20 7.844e-20 -1.6947e-20 -1.6947e-20 -4.87675e-20 -4.87675e-20 6.83792e-20 6.83792e-20 -3.35709e-20 -3.35709e-20 -2.17091e-20 -2.17091e-20 5.29007e-20 5.29007e-20 -3.99085e-20 -3.99085e-20 -1.28255e-21 -1.28255e-21 3.57717e-20 3.57717e-20 -3.86278e-20 -3.86278e-20 1.21473e-20 1.21473e-20 1.97449e-20 1.97449e-20 -3.24575e-20 -3.24575e-20 1.91832e-20 1.91832e-20 6.55398e-21 6.55398e-21 -2.38544e-20 -2.38544e-20 2.10297e-20 2.10297e-20 -2.97792e-21 -2.97792e-21 -1.47968e-20 -1.47968e-20 1.91676e-20 1.91676e-20 -8.7594e-21 -8.7594e-21 -6.69238e-21 -6.69238e-21 1.50903e-20 1.50903e-20 -1.12208e-20 -1.12208e-20 -3.76677e-22 -3.76677e-22 1.01153e-20 1.01153e-20 -1.11041e-20 -1.11041e-20 3.82056e-21 3.82056e-21 5.2694e-21 5.2694e-21 -9.27468e-21 -9.27468e-21 5.96808e-21 5.96808e-21 1.24063e-21 1.24063e-21 -6.57182e-21 -6.57182e-21 6.40686e-21 6.40686e-21 -1.61438e-21 -1.61438e-21 -3.70239e-21 -3.70239e-21 5.62432e-21 5.62432e-21 -3.22359e-21 -3.22359e-21 -1.1808e-21 -1.1808e-21 4.14345e-21 4.14345e-21 -3.72789e-21 -3.72789e-21 6.8984e-22 6.8984e-22 2.43652e-21 2.43652e-21 -3.39963e-21 -3.39963e-21 1.80262e-21 1.80262e-21 8.68477e-22 8.68477e-22 -2.56387e-21 -2.56387e-21 2.20774e-21 2.20774e-21 -3.29579e-22 -3.29579e-22 -1.53231e-21 -1.53231e-21 2.06024e-21 2.06024e-21 -1.05994e-21 -1.05994e-21 -5.56182e-22 -5.56182e-22 1.56491e-21 1.56491e-21 -1.33712e-21 -1.33712e-21 1.99184e-22 1.99184e-22 9.27321e-22 9.27321e-22 -1.25383e-21 -1.25383e-21 6.59135e-22 6.59135e-22 3.17235e-22 3.17235e-22 -9.42364e-22 -9.42364e-22 8.2766e-22 8.2766e-22 -1.52336e-22 -1.52336e-22 -5.38974e-22 -5.38974e-22 7.64429e-22 7.64429e-22 -4.3044e-22 -4.3044e-22 -1.56736e-22 -1.56736e-22 5.57475e-22 5.57475e-22 -5.20482e-22 -5.20482e-22 1.30142e-22 1.30142e-22 2.9758e-22 2.9758e-22 -4.64002e-22 -4.64002e-22 2.90256e-22 2.90256e-22 5.88671e-23 5.88671e-23 -3.21102e-22 -3.21102e-22 3.29224e-22 3.29224e-22 -1.12022e-22 -1.12022e-22 -1.52271e-22 -1.52271e-22 2.77734e-22 2.77734e-22 -1.98044e-22 -1.98044e-22 -5.03674e-24 -5.03674e-24 1.7743e-22 1.7743e-22 -2.06867e-22 -2.06867e-22 9.28967e-23 9.28967e-23 6.82548e-23 6.82548e-23 -1.61811e-22 -1.61811e-22 1.34147e-22 1.34147e-22 -2.03142e-23 -2.03142e-23 -9.17323e-23 -9.17323e-23 1.27324e-22 1.27324e-22 -7.31316e-23 -7.31316e-23 -2.24521e-23 -2.24521e-23 9.01345e-23 9.01345e-23 -8.87363e-23 -8.87363e-23 2.86444e-23 2.86444e-23 4.22589e-23 4.22589e-23 -7.55492e-23 -7.55492e-23 5.43799e-23 5.43799e-23 -2.09673e-25 -2.09673e-25 -4.67076e-23 -4.67076e-23 5.64777e-23 5.64777e-23 -2.77925e-23 -2.77925e-23 -1.52106e-23 -1.52106e-23 4.23551e-23 4.23551e-23 -3.80533e-23 -3.80533e-23 9.46397e-24 9.46397e-24 2.13799e-23 2.13799e-23 -3.40457e-23 -3.40457e-23 2.27997e-23 2.27997e-23 1.72657e-24 1.72657e-24 -2.17537e-23 -2.17537e-23 2.49094e-23 2.49094e-23 -1.14922e-23 -1.14922e-23 -7.50874e-24 -7.50874e-24 1.90328e-23 1.90328e-23 -1.668e-23 -1.668e-23 3.90085e-24 3.90085e-24 9.62069e-24 9.62069e-24 -1.50832e-23 -1.50832e-23 1.01021e-23 1.01021e-23 6.67856e-25 6.67856e-25 -9.51529e-24 -9.51529e-24 1.10458e-23 1.10458e-23 -5.30444e-24 -5.30444e-24 -3.02466e-24 -3.02466e-24 8.26693e-24 8.26693e-24 -7.51544e-24 -7.51544e-24 2.08852e-24 2.08852e-24 3.90929e-24 3.90929e-24 -6.59079e-24 -6.59079e-24 4.72135e-24 4.72135e-24 -1.238e-25 -1.238e-25 -3.91064e-24 -3.91064e-24 4.91223e-24 4.91223e-24 -2.67518e-24 -2.67518e-24 -9.35147e-25 -9.35147e-25 3.45264e-24 3.45264e-24 -3.44789e-24 -3.44789e-24 1.27872e-24 1.27872e-24 1.38931e-24 1.38931e-24 -2.81398e-24 -2.81398e-24 2.27848e-24 2.27848e-24 -3.93611e-25 -3.93611e-25 -1.47344e-24 -1.47344e-24 2.16044e-24 2.16044e-24 -1.40547e-24 -1.40547e-24 -1.18485e-25 -1.18485e-25 1.35565e-24 1.35565e-24 -1.57811e-24 -1.57811e-24 7.90763e-25 7.90763e-25 3.76329e-25 3.7632