# vtk DataFile Version 3.0
#This file was generated by the deal.II library on 2020/8/11 at 22:16:33
ASCII
DATASET UNSTRUCTURED_GRID

POINTS 4096 double
0.5 0 0
0.743896 0 0
0.743896 0 0
0.987793 0 0
0.987793 0 0
1.23169 0 0
1.23169 0 0
1.47559 0 0
1.47559 0 0
1.71948 0 0
1.71948 0 0
1.96338 0 0
1.96338 0 0
2.20728 0 0
2.20728 0 0
2.45117 0 0
2.45117 0 0
2.69507 0 0
2.69507 0 0
2.93896 0 0
2.93896 0 0
3.18286 0 0
3.18286 0 0
3.42676 0 0
3.42676 0 0
3.67065 0 0
3.67065 0 0
3.91455 0 0
3.91455 0 0
4.15845 0 0
4.15845 0 0
4.40234 0 0
4.40234 0 0
4.64624 0 0
4.64624 0 0
4.89014 0 0
4.89014 0 0
5.13403 0 0
5.13403 0 0
5.37793 0 0
5.37793 0 0
5.62183 0 0
5.62183 0 0
5.86572 0 0
5.86572 0 0
6.10962 0 0
6.10962 0 0
6.35352 0 0
6.35352 0 0
6.59741 0 0
6.59741 0 0
6.84131 0 0
6.84131 0 0
7.08521 0 0
7.08521 0 0
7.3291 0 0
7.3291 0 0
7.573 0 0
7.573 0 0
7.81689 0 0
7.81689 0 0
8.06079 0 0
8.06079 0 0
8.30469 0 0
8.30469 0 0
8.54858 0 0
8.54858 0 0
8.79248 0 0
8.79248 0 0
9.03638 0 0
9.03638 0 0
9.28027 0 0
9.28027 0 0
9.52417 0 0
9.52417 0 0
9.76807 0 0
9.76807 0 0
10.012 0 0
10.012 0 0
10.2559 0 0
10.2559 0 0
10.4998 0 0
10.4998 0 0
10.7437 0 0
10.7437 0 0
10.9875 0 0
10.9875 0 0
11.2314 0 0
11.2314 0 0
11.4753 0 0
11.4753 0 0
11.7192 0 0
11.7192 0 0
11.9631 0 0
11.9631 0 0
12.207 0 0
12.207 0 0
12.4509 0 0
12.4509 0 0
12.6948 0 0
12.6948 0 0
12.9387 0 0
12.9387 0 0
13.1826 0 0
13.1826 0 0
13.4265 0 0
13.4265 0 0
13.6704 0 0
13.6704 0 0
13.9143 0 0
13.9143 0 0
14.1582 0 0
14.1582 0 0
14.4021 0 0
14.4021 0 0
14.646 0 0
14.646 0 0
14.8899 0 0
14.8899 0 0
15.1338 0 0
15.1338 0 0
15.3777 0 0
15.3777 0 0
15.6216 0 0
15.6216 0 0
15.8655 0 0
15.8655 0 0
16.1094 0 0
16.1094 0 0
16.3533 0 0
16.3533 0 0
16.5972 0 0
16.5972 0 0
16.8411 0 0
16.8411 0 0
17.085 0 0
17.085 0 0
17.3289 0 0
17.3289 0 0
17.5728 0 0
17.5728 0 0
17.8167 0 0
17.8167 0 0
18.0605 0 0
18.0605 0 0
18.3044 0 0
18.3044 0 0
18.5483 0 0
18.5483 0 0
18.7922 0 0
18.7922 0 0
19.0361 0 0
19.0361 0 0
19.28 0 0
19.28 0 0
19.5239 0 0
19.5239 0 0
19.7678 0 0
19.7678 0 0
20.0117 0 0
20.0117 0 0
20.2556 0 0
20.2556 0 0
20.4995 0 0
20.4995 0 0
20.7434 0 0
20.7434 0 0
20.9873 0 0
20.9873 0 0
21.2312 0 0
21.2312 0 0
21.4751 0 0
21.4751 0 0
21.719 0 0
21.719 0 0
21.9629 0 0
21.9629 0 0
22.2068 0 0
22.2068 0 0
22.4507 0 0
22.4507 0 0
22.6946 0 0
22.6946 0 0
22.9385 0 0
22.9385 0 0
23.1824 0 0
23.1824 0 0
23.4263 0 0
23.4263 0 0
23.6702 0 0
23.6702 0 0
23.9141 0 0
23.9141 0 0
24.158 0 0
24.158 0 0
24.4019 0 0
24.4019 0 0
24.6458 0 0
24.6458 0 0
24.8896 0 0
24.8896 0 0
25.1335 0 0
25.1335 0 0
25.3774 0 0
25.3774 0 0
25.6213 0 0
25.6213 0 0
25.8652 0 0
25.8652 0 0
26.1091 0 0
26.1091 0 0
26.353 0 0
26.353 0 0
26.5969 0 0
26.5969 0 0
26.8408 0 0
26.8408 0 0
27.0847 0 0
27.0847 0 0
27.3286 0 0
27.3286 0 0
27.5725 0 0
27.5725 0 0
27.8164 0 0
27.8164 0 0
28.0603 0 0
28.0603 0 0
28.3042 0 0
28.3042 0 0
28.5481 0 0
28.5481 0 0
28.792 0 0
28.792 0 0
29.0359 0 0
29.0359 0 0
29.2798 0 0
29.2798 0 0
29.5237 0 0
29.5237 0 0
29.7676 0 0
29.7676 0 0
30.0115 0 0
30.0115 0 0
30.2554 0 0
30.2554 0 0
30.4993 0 0
30.4993 0 0
30.7432 0 0
30.7432 0 0
30.9871 0 0
30.9871 0 0
31.231 0 0
31.231 0 0
31.4749 0 0
31.4749 0 0
31.7188 0 0
31.7188 0 0
31.9626 0 0
31.9626 0 0
32.2065 0 0
32.2065 0 0
32.4504 0 0
32.4504 0 0
32.6943 0 0
32.6943 0 0
32.9382 0 0
32.9382 0 0
33.1821 0 0
33.1821 0 0
33.426 0 0
33.426 0 0
33.6699 0 0
33.6699 0 0
33.9138 0 0
33.9138 0 0
34.1577 0 0
34.1577 0 0
34.4016 0 0
34.4016 0 0
34.6455 0 0
34.6455 0 0
34.8894 0 0
34.8894 0 0
35.1333 0 0
35.1333 0 0
35.3772 0 0
35.3772 0 0
35.6211 0 0
35.6211 0 0
35.865 0 0
35.865 0 0
36.1089 0 0
36.1089 0 0
36.3528 0 0
36.3528 0 0
36.5967 0 0
36.5967 0 0
36.8406 0 0
36.8406 0 0
37.0845 0 0
37.0845 0 0
37.3284 0 0
37.3284 0 0
37.5723 0 0
37.5723 0 0
37.8162 0 0
37.8162 0 0
38.0601 0 0
38.0601 0 0
38.304 0 0
38.304 0 0
38.5479 0 0
38.5479 0 0
38.7917 0 0
38.7917 0 0
39.0356 0 0
39.0356 0 0
39.2795 0 0
39.2795 0 0
39.5234 0 0
39.5234 0 0
39.7673 0 0
39.7673 0 0
40.0112 0 0
40.0112 0 0
40.2551 0 0
40.2551 0 0
40.499 0 0
40.499 0 0
40.7429 0 0
40.7429 0 0
40.9868 0 0
40.9868 0 0
41.2307 0 0
41.2307 0 0
41.4746 0 0
41.4746 0 0
41.7185 0 0
41.7185 0 0
41.9624 0 0
41.9624 0 0
42.2063 0 0
42.2063 0 0
42.4502 0 0
42.4502 0 0
42.6941 0 0
42.6941 0 0
42.938 0 0
42.938 0 0
43.1819 0 0
43.1819 0 0
43.4258 0 0
43.4258 0 0
43.6697 0 0
43.6697 0 0
43.9136 0 0
43.9136 0 0
44.1575 0 0
44.1575 0 0
44.4014 0 0
44.4014 0 0
44.6453 0 0
44.6453 0 0
44.8892 0 0
44.8892 0 0
45.1331 0 0
45.1331 0 0
45.377 0 0
45.377 0 0
45.6208 0 0
45.6208 0 0
45.8647 0 0
45.8647 0 0
46.1086 0 0
46.1086 0 0
46.3525 0 0
46.3525 0 0
46.5964 0 0
46.5964 0 0
46.8403 0 0
46.8403 0 0
47.0842 0 0
47.0842 0 0
47.3281 0 0
47.3281 0 0
47.572 0 0
47.572 0 0
47.8159 0 0
47.8159 0 0
48.0598 0 0
48.0598 0 0
48.3037 0 0
48.3037 0 0
48.5476 0 0
48.5476 0 0
48.7915 0 0
48.7915 0 0
49.0354 0 0
49.0354 0 0
49.2793 0 0
49.2793 0 0
49.5232 0 0
49.5232 0 0
49.7671 0 0
49.7671 0 0
50.011 0 0
50.011 0 0
50.2549 0 0
50.2549 0 0
50.4988 0 0
50.4988 0 0
50.7427 0 0
50.7427 0 0
50.9866 0 0
50.9866 0 0
51.2305 0 0
51.2305 0 0
51.4744 0 0
51.4744 0 0
51.7183 0 0
51.7183 0 0
51.9622 0 0
51.9622 0 0
52.2061 0 0
52.2061 0 0
52.45 0 0
52.45 0 0
52.6938 0 0
52.6938 0 0
52.9377 0 0
52.9377 0 0
53.1816 0 0
53.1816 0 0
53.4255 0 0
53.4255 0 0
53.6694 0 0
53.6694 0 0
53.9133 0 0
53.9133 0 0
54.1572 0 0
54.1572 0 0
54.4011 0 0
54.4011 0 0
54.645 0 0
54.645 0 0
54.8889 0 0
54.8889 0 0
55.1328 0 0
55.1328 0 0
55.3767 0 0
55.3767 0 0
55.6206 0 0
55.6206 0 0
55.8645 0 0
55.8645 0 0
56.1084 0 0
56.1084 0 0
56.3523 0 0
56.3523 0 0
56.5962 0 0
56.5962 0 0
56.8401 0 0
56.8401 0 0
57.084 0 0
57.084 0 0
57.3279 0 0
57.3279 0 0
57.5718 0 0
57.5718 0 0
57.8157 0 0
57.8157 0 0
58.0596 0 0
58.0596 0 0
58.3035 0 0
58.3035 0 0
58.5474 0 0
58.5474 0 0
58.7913 0 0
58.7913 0 0
59.0352 0 0
59.0352 0 0
59.2791 0 0
59.2791 0 0
59.5229 0 0
59.5229 0 0
59.7668 0 0
59.7668 0 0
60.0107 0 0
60.0107 0 0
60.2546 0 0
60.2546 0 0
60.4985 0 0
60.4985 0 0
60.7424 0 0
60.7424 0 0
60.9863 0 0
60.9863 0 0
61.2302 0 0
61.2302 0 0
61.4741 0 0
61.4741 0 0
61.718 0 0
61.718 0 0
61.9619 0 0
61.9619 0 0
62.2058 0 0
62.2058 0 0
62.4497 0 0
62.4497 0 0
62.6936 0 0
62.6936 0 0
62.9375 0 0
62.9375 0 0
63.1814 0 0
63.1814 0 0
63.4253 0 0
63.4253 0 0
63.6692 0 0
63.6692 0 0
63.9131 0 0
63.9131 0 0
64.157 0 0
64.157 0 0
64.4009 0 0
64.4009 0 0
64.6448 0 0
64.6448 0 0
64.8887 0 0
64.8887 0 0
65.1326 0 0
65.1326 0 0
65.3765 0 0
65.3765 0 0
65.6204 0 0
65.6204 0 0
65.8643 0 0
65.8643 0 0
66.1082 0 0
66.1082 0 0
66.3521 0 0
66.3521 0 0
66.5959 0 0
66.5959 0 0
66.8398 0 0
66.8398 0 0
67.0837 0 0
67.0837 0 0
67.3276 0 0
67.3276 0 0
67.5715 0 0
67.5715 0 0
67.8154 0 0
67.8154 0 0
68.0593 0 0
68.0593 0 0
68.3032 0 0
68.3032 0 0
68.5471 0 0
68.5471 0 0
68.791 0 0
68.791 0 0
69.0349 0 0
69.0349 0 0
69.2788 0 0
69.2788 0 0
69.5227 0 0
69.5227 0 0
69.7666 0 0
69.7666 0 0
70.0105 0 0
70.0105 0 0
70.2544 0 0
70.2544 0 0
70.4983 0 0
70.4983 0 0
70.7422 0 0
70.7422 0 0
70.9861 0 0
70.9861 0 0
71.23 0 0
71.23 0 0
71.4739 0 0
71.4739 0 0
71.7178 0 0
71.7178 0 0
71.9617 0 0
71.9617 0 0
72.2056 0 0
72.2056 0 0
72.4495 0 0
72.4495 0 0
72.6934 0 0
72.6934 0 0
72.9373 0 0
72.9373 0 0
73.1812 0 0
73.1812 0 0
73.425 0 0
73.425 0 0
73.6689 0 0
73.6689 0 0
73.9128 0 0
73.9128 0 0
74.1567 0 0
74.1567 0 0
74.4006 0 0
74.4006 0 0
74.6445 0 0
74.6445 0 0
74.8884 0 0
74.8884 0 0
75.1323 0 0
75.1323 0 0
75.3762 0 0
75.3762 0 0
75.6201 0 0
75.6201 0 0
75.864 0 0
75.864 0 0
76.1079 0 0
76.1079 0 0
76.3518 0 0
76.3518 0 0
76.5957 0 0
76.5957 0 0
76.8396 0 0
76.8396 0 0
77.0835 0 0
77.0835 0 0
77.3274 0 0
77.3274 0 0
77.5713 0 0
77.5713 0 0
77.8152 0 0
77.8152 0 0
78.0591 0 0
78.0591 0 0
78.303 0 0
78.303 0 0
78.5469 0 0
78.5469 0 0
78.7908 0 0
78.7908 0 0
79.0347 0 0
79.0347 0 0
79.2786 0 0
79.2786 0 0
79.5225 0 0
79.5225 0 0
79.7664 0 0
79.7664 0 0
80.0103 0 0
80.0103 0 0
80.2542 0 0
80.2542 0 0
80.498 0 0
80.498 0 0
80.7419 0 0
80.7419 0 0
80.9858 0 0
80.9858 0 0
81.2297 0 0
81.2297 0 0
81.4736 0 0
81.4736 0 0
81.7175 0 0
81.7175 0 0
81.9614 0 0
81.9614 0 0
82.2053 0 0
82.2053 0 0
82.4492 0 0
82.4492 0 0
82.6931 0 0
82.6931 0 0
82.937 0 0
82.937 0 0
83.1809 0 0
83.1809 0 0
83.4248 0 0
83.4248 0 0
83.6687 0 0
83.6687 0 0
83.9126 0 0
83.9126 0 0
84.1565 0 0
84.1565 0 0
84.4004 0 0
84.4004 0 0
84.6443 0 0
84.6443 0 0
84.8882 0 0
84.8882 0 0
85.1321 0 0
85.1321 0 0
85.376 0 0
85.376 0 0
85.6199 0 0
85.6199 0 0
85.8638 0 0
85.8638 0 0
86.1077 0 0
86.1077 0 0
86.3516 0 0
86.3516 0 0
86.5955 0 0
86.5955 0 0
86.8394 0 0
86.8394 0 0
87.0833 0 0
87.0833 0 0
87.3271 0 0
87.3271 0 0
87.571 0 0
87.571 0 0
87.8149 0 0
87.8149 0 0
88.0588 0 0
88.0588 0 0
88.3027 0 0
88.3027 0 0
88.5466 0 0
88.5466 0 0
88.7905 0 0
88.7905 0 0
89.0344 0 0
89.0344 0 0
89.2783 0 0
89.2783 0 0
89.5222 0 0
89.5222 0 0
89.7661 0 0
89.7661 0 0
90.01 0 0
90.01 0 0
90.2539 0 0
90.2539 0 0
90.4978 0 0
90.4978 0 0
90.7417 0 0
90.7417 0 0
90.9856 0 0
90.9856 0 0
91.2295 0 0
91.2295 0 0
91.4734 0 0
91.4734 0 0
91.7173 0 0
91.7173 0 0
91.9612 0 0
91.9612 0 0
92.2051 0 0
92.2051 0 0
92.449 0 0
92.449 0 0
92.6929 0 0
92.6929 0 0
92.9368 0 0
92.9368 0 0
93.1807 0 0
93.1807 0 0
93.4246 0 0
93.4246 0 0
93.6685 0 0
93.6685 0 0
93.9124 0 0
93.9124 0 0
94.1562 0 0
94.1562 0 0
94.4001 0 0
94.4001 0 0
94.644 0 0
94.644 0 0
94.8879 0 0
94.8879 0 0
95.1318 0 0
95.1318 0 0
95.3757 0 0
95.3757 0 0
95.6196 0 0
95.6196 0 0
95.8635 0 0
95.8635 0 0
96.1074 0 0
96.1074 0 0
96.3513 0 0
96.3513 0 0
96.5952 0 0
96.5952 0 0
96.8391 0 0
96.8391 0 0
97.083 0 0
97.083 0 0
97.3269 0 0
97.3269 0 0
97.5708 0 0
97.5708 0 0
97.8147 0 0
97.8147 0 0
98.0586 0 0
98.0586 0 0
98.3025 0 0
98.3025 0 0
98.5464 0 0
98.5464 0 0
98.7903 0 0
98.7903 0 0
99.0342 0 0
99.0342 0 0
99.2781 0 0
99.2781 0 0
99.522 0 0
99.522 0 0
99.7659 0 0
99.7659 0 0
100.01 0 0
100.01 0 0
100.254 0 0
100.254 0 0
100.498 0 0
100.498 0 0
100.741 0 0
100.741 0 0
100.985 0 0
100.985 0 0
101.229 0 0
101.229 0 0
101.473 0 0
[...]
POINT_DATA 4096
SCALARS solution_0 double 1
LOOKUP_TABLE default
0.00792109 -6.96771 -6.96771 -1.97601 -1.97601 -0.962237 -0.962237 -0.417728 -0.417728 -0.153824 -0.153824 0.0826644 0.0826644 0.146825 0.146825 0.244437 0.244437 0.175064 0.175064 0.110207 0.110207 -0.0558647 -0.0558647 -0.0922405 -0.0922405 -0.0602057 -0.0602057 0.073537 0.073537 0.200874 0.200874 0.188727 0.188727 0.220874 0.220874 0.409687 0.409687 0.798183 0.798183 1.20942 1.20942 1.7369 1.7369 2.43035 2.43035 3.45554 3.45554 4.52993 4.52993 5.61034 5.61034 6.69494 6.69494 7.6897 7.6897 8.29838 8.29838 8.48182 8.48182 8.29352 8.29352 7.67343 7.67343 6.66991 6.66991 5.47589 5.47589 4.29366 4.29366 3.12262 3.12262 2.12654 2.12654 1.3926 1.3926 0.842096 0.842096 0.459557 0.459557 0.246262 0.246262 0.139103 0.139103 0.0379062 0.0379062 0.0285196 0.0285196 0.0174907 0.0174907 -0.00707329 -0.00707329 0.00457065 0.00457065 0.00371147 0.00371147 -0.00254159 -0.00254159 -0.00423881 -0.00423881 0.0104381 0.0104381 -0.0104658 -0.0104658 0.00499089 0.00499089 0.000898945 0.000898945 -0.00256311 -0.00256311 -0.000523718 -0.000523718 0.00505368 0.00505368 -0.00707746 -0.00707746 0.00510112 0.00510112 -0.000809708 -0.000809708 -0.00263136 -0.00263136 0.00301068 0.00301068 -0.000414464 -0.000414464 -0.00320013 -0.00320013 0.00555248 0.00555248 -0.00547876 -0.00547876 0.00339156 0.00339156 -0.00070447 -0.00070447 -0.00118841 -0.00118841 0.00166936 0.00166936 -0.00102059 -0.00102059 1.24347e-05 1.24347e-05 0.000663092 0.000663092 -0.00074835 -0.00074835 0.000423788 0.000423788 -5.88594e-05 -5.88594e-05 -7.33444e-05 -7.33444e-05 -5.89114e-05 -5.89114e-05 0.000288174 0.000288174 -0.000402822 -0.000402822 0.000294387 0.000294387 -1.11945e-05 -1.11945e-05 -0.000293025 -0.000293025 0.00046412 0.00046412 -0.000435546 -0.000435546 0.000253198 0.000253198 -3.49239e-05 -3.49239e-05 -0.000101693 -0.000101693 9.94944e-05 9.94944e-05 1.91685e-05 1.91685e-05 -0.000176751 -0.000176751 0.000288211 0.000288211 -0.000304246 -0.000304246 0.000229715 0.000229715 -0.000112766 -0.000112766 1.50413e-05 1.50413e-05 1.96716e-05 1.96716e-05 1.65194e-05 1.65194e-05 -9.69091e-05 -9.69091e-05 0.000176977 0.000176977 -0.00021658 -0.00021658 0.000196909 0.000196909 -0.000125771 -0.000125771 3.08804e-05 3.08804e-05 5.40068e-05 5.40068e-05 -0.000103227 -0.000103227 0.000107839 0.000107839 -7.62886e-05 -7.62886e-05 2.82575e-05 2.82575e-05 1.46734e-05 1.46734e-05 -3.73741e-05 -3.73741e-05 3.55352e-05 3.55352e-05 -1.51621e-05 -1.51621e-05 -1.16854e-05 -1.16854e-05 3.2598e-05 3.2598e-05 -3.95723e-05 -3.95723e-05 3.12446e-05 3.12446e-05 -1.22643e-05 -1.22643e-05 -9.42399e-06 -9.42399e-06 2.60167e-05 2.60167e-05 -3.26414e-05 -3.26414e-05 2.86288e-05 2.86288e-05 -1.70965e-05 -1.70965e-05 3.2929e-06 3.2929e-06 7.50783e-06 7.50783e-06 -1.17676e-05 -1.17676e-05 8.57684e-06 8.57684e-06 4.59881e-07 4.59881e-07 -1.2125e-05 -1.2125e-05 2.28429e-05 2.28429e-05 -2.98261e-05 -2.98261e-05 3.17742e-05 3.17742e-05 -2.89948e-05 -2.89948e-05 2.30202e-05 2.30202e-05 -1.59356e-05 -1.59356e-05 9.67587e-06 9.67587e-06 -5.50828e-06 -5.50828e-06 3.81436e-06 3.81436e-06 -4.17389e-06 -4.17389e-06 5.66251e-06 5.66251e-06 -7.23129e-06 -7.23129e-06 8.04069e-06 8.04069e-06 -7.66246e-06 -7.66246e-06 6.12e-06 6.12e-06 -3.79056e-06 -3.79056e-06 1.22737e-06 1.22737e-06 1.03048e-06 1.03048e-06 -2.60415e-06 -2.60415e-06 3.34569e-06 3.34569e-06 -3.33031e-06 -3.33031e-06 2.7896e-06 2.7896e-06 -2.01742e-06 -2.01742e-06 1.28019e-06 1.28019e-06 -7.55253e-07 -7.55253e-07 5.07474e-07 5.07474e-07 -5.01669e-07 -5.01669e-07 6.39154e-07 6.39154e-07 -8.02824e-07 -8.02824e-07 8.96504e-07 8.96504e-07 -8.69184e-07 -8.69184e-07 7.20982e-07 7.20982e-07 -4.93389e-07 -4.93389e-07 2.49932e-07 2.49932e-07 -5.46042e-08 -5.46042e-08 -4.57076e-08 -4.57076e-08 3.10163e-08 3.10163e-08 9.06486e-08 9.06486e-08 -2.89252e-07 -2.89252e-07 5.22882e-07 5.22882e-07 -7.48646e-07 -7.48646e-07 9.31576e-07 9.31576e-07 -1.04991e-06 -1.04991e-06 1.09644e-06 1.09644e-06 -1.07651e-06 -1.07651e-06 1.00409e-06 1.00409e-06 -8.97157e-07 -8.97157e-07 7.73672e-07 7.73672e-07 -6.48737e-07 -6.48737e-07 5.33198e-07 5.33198e-07 -4.33453e-07 -4.33453e-07 3.52071e-07 3.52071e-07 -2.88778e-07 -2.88778e-07 2.41447e-07 2.41447e-07 -2.06907e-07 -2.06907e-07 1.81523e-07 1.81523e-07 -1.61602e-07 -1.61602e-07 1.43727e-07 1.43727e-07 -1.25064e-07 -1.25064e-07 1.03665e-07 1.03665e-07 -7.87174e-08 -7.87174e-08 5.06623e-08 5.06623e-08 -2.11169e-08 -2.11169e-08 -7.42938e-09 -7.42938e-09 3.211e-08 3.211e-08 -5.02816e-08 -5.02816e-08 6.01041e-08 6.01041e-08 -6.09717e-08 -6.09717e-08 5.36954e-08 5.36954e-08 -4.03919e-08 -4.03919e-08 2.40999e-08 2.40999e-08 -8.2056e-09 -8.2056e-09 -4.19992e-09 -4.19992e-09 1.08979e-08 1.08979e-08 -1.09356e-08 -1.09356e-08 4.76298e-09 4.76298e-09 5.90702e-09 5.90702e-09 -1.84754e-08 -1.84754e-08 2.99883e-08 2.99883e-08 -3.77127e-08 -3.77127e-08 3.96447e-08 3.96447e-08 -3.486e-08 -3.486e-08 2.36499e-08 2.36499e-08 -7.43275e-09 -7.43275e-09 -1.15288e-08 -1.15288e-08 3.05411e-08 3.05411e-08 -4.69415e-08 -4.69415e-08 5.85245e-08 5.85245e-08 -6.38645e-08 -6.38645e-08 6.24879e-08 6.24879e-08 -5.48811e-08 -5.48811e-08 4.23472e-08 4.23472e-08 -2.675e-08 -2.675e-08 1.01978e-08 1.01978e-08 5.27796e-09 5.27796e-09 -1.79979e-08 -1.79979e-08 2.6827e-08 2.6827e-08 -3.12655e-08 -3.12655e-08 3.14368e-08 3.14368e-08 -2.7988e-08 -2.7988e-08 2.19309e-08 2.19309e-08 -1.44529e-08 -1.44529e-08 6.73255e-09 6.73255e-09 2.15948e-10 2.15948e-10 -5.65029e-09 -5.65029e-09 9.1524e-09 9.1524e-09 -1.0627e-08 -1.0627e-08 1.02558e-08 1.02558e-08 -8.42191e-09 -8.42191e-09 5.62018e-09 5.62018e-09 -2.36981e-09 -2.36981e-09 -8.5954e-10 -8.5954e-10 3.6997e-09 3.6997e-09 -5.91096e-09 -5.91096e-09 7.3854e-09 7.3854e-09 -8.13094e-09 -8.13094e-09 8.24269e-09 8.24269e-09 -7.8685e-09 -7.8685e-09 7.1753e-09 7.1753e-09 -6.32084e-09 -6.32084e-09 5.43414e-09 5.43414e-09 -4.60529e-09 -4.60529e-09 3.88411e-09 3.88411e-09 -3.28556e-09 -3.28556e-09 2.79936e-09 2.79936e-09 -2.40106e-09 -2.40106e-09 2.06236e-09 2.06236e-09 -1.75904e-09 -1.75904e-09 1.47563e-09 1.47563e-09 -1.20676e-09 -1.20676e-09 9.55827e-10 9.55827e-10 -7.31854e-10 -7.31854e-10 5.45543e-10 5.45543e-10 -4.05602e-10 -4.05602e-10 3.16009e-10 3.16009e-10 -2.74668e-10 -2.74668e-10 2.73492e-10 2.73492e-10 -2.99745e-10 -2.99745e-10 3.38187e-10 3.38187e-10 -3.73553e-10 -3.73553e-10 3.92859e-10 3.92859e-10 -3.87153e-10 -3.87153e-10 3.52464e-10 3.52464e-10 -2.89889e-10 -2.89889e-10 2.04883e-10 2.04883e-10 -1.05973e-10 -1.05973e-10 3.15294e-12 3.15294e-12 9.37431e-11 9.37431e-11 -1.76451e-10 -1.76451e-10 2.39275e-10 2.39275e-10 -2.79584e-10 -2.79584e-10 2.97798e-10 2.97798e-10 -2.96935e-10 -2.96935e-10 2.81846e-10 2.81846e-10 -2.58294e-10 -2.58294e-10 2.32027e-10 2.32027e-10 -2.07983e-10 -2.07983e-10 1.89734e-10 1.89734e-10 -1.79184e-10 -1.79184e-10 1.76566e-10 1.76566e-10 -1.80663e-10 -1.80663e-10 1.89206e-10 1.89206e-10 -1.99367e-10 -1.99367e-10 2.08251e-10 2.08251e-10 -2.13339e-10 -2.13339e-10 2.12808e-10 2.12808e-10 -2.05713e-10 -2.05713e-10 1.92026e-10 1.92026e-10 -1.7254e-10 -1.7254e-10 1.48677e-10 1.48677e-10 -1.22245e-10 -1.22245e-10 9.51697e-11 9.51697e-11 -6.92504e-11 -6.92504e-11 4.59694e-11 4.59694e-11 -2.63652e-11 -2.63652e-11 1.09808e-11 1.09808e-11 1.19801e-13 1.19801e-13 -7.27887e-12 -7.27887e-12 1.11353e-11 1.11353e-11 -1.24971e-11 -1.24971e-11 1.22162e-11 1.22162e-11 -1.10797e-11 -1.10797e-11 9.7303e-12 9.7303e-12 -8.61928e-12 -8.61928e-12 7.99367e-12 7.99367e-12 -7.91213e-12 -7.91213e-12 8.28289e-12 8.28289e-12 -8.91443e-12 -8.91443e-12 9.57007e-12 9.57007e-12 -1.00183e-11 -1.00183e-11 1.00727e-11 1.00727e-11 -9.61882e-12 -9.61882e-12 8.62455e-12 8.62455e-12 -7.13796e-12 -7.13796e-12 5.27297e-12 5.27297e-12 -3.18781e-12 -3.18781e-12 1.05999e-12 1.05999e-12 9.38161e-13 9.38161e-13 -2.66022e-12 -2.66022e-12 4.00047e-12 4.00047e-12 -4.90174e-12 -4.90174e-12 5.35609e-12 5.35609e-12 -5.39957e-12 -5.39957e-12 5.10227e-12 5.10227e-12 -4.55585e-12 -4.55585e-12 3.86021e-12 3.86021e-12 -3.11129e-12 -3.11129e-12 2.39114e-12 2.39114e-12 -1.76118e-12 -1.76118e-12 1.25899e-12 1.25899e-12 -8.98414e-13 -8.98414e-13 6.72442e-13 6.72442e-13 -5.58124e-13 -5.58124e-13 5.22519e-13 5.22519e-13 -5.28843e-13 -5.28843e-13 5.42014e-13 5.42014e-13 -5.33028e-13 -5.33028e-13 4.81817e-13 4.81817e-13 -3.78492e-13 -3.78492e-13 2.23086e-13 2.23086e-13 -2.40671e-14 -2.40671e-14 -2.03982e-13 -2.03982e-13 4.43116e-13 4.43116e-13 -6.74776e-13 -6.74776e-13 8.8222e-13 8.8222e-13 -1.05236e-12 -1.05236e-12 1.17691e-12 1.17691e-12 -1.25271e-12 -1.25271e-12 1.28148e-12 1.28148e-12 -1.26894e-12 -1.26894e-12 1.22359e-12 1.22359e-12 -1.15537e-12 -1.15537e-12 1.07434e-12 1.07434e-12 -9.89462e-13 -9.89462e-13 9.07827e-13 9.07827e-13 -8.34123e-13 -8.34123e-13 7.70525e-13 7.70525e-13 -7.16898e-13 -7.16898e-13 6.71264e-13 6.71264e-13 -6.30425e-13 -6.30425e-13 5.90667e-13 5.90667e-13 -5.48426e-13 -5.48426e-13 5.00848e-13 5.00848e-13 -4.462e-13 -4.462e-13 3.84072e-13 3.84072e-13 -3.15407e-13 -3.15407e-13 2.42335e-13 2.42335e-13 -1.67885e-13 -1.67885e-13 9.55999e-14 9.55999e-14 -2.91145e-14 -2.91145e-14 -2.82468e-14 -2.82468e-14 7.3818e-14 7.3818e-14 -1.05848e-13 -1.05848e-13 1.23643e-13 1.23643e-13 -1.276e-13 -1.276e-13 1.1912e-13 1.1912e-13 -1.0044e-13 -1.0044e-13 7.43919e-14 7.43919e-14 -4.41283e-14 -4.41283e-14 1.2835e-14 1.2835e-14 1.65309e-14 1.65309e-14 -4.14637e-14 -4.14637e-14 6.00726e-14 6.00726e-14 -7.11772e-14 -7.11772e-14 7.43338e-14 7.43338e-14 -6.97976e-14 -6.97976e-14 5.84299e-14 5.84299e-14 -4.15652e-14 -4.15652e-14 2.08533e-14 2.08533e-14 1.90706e-15 1.90706e-15 -2.49277e-14 -2.49277e-14 4.65719e-14 4.65719e-14 -6.54663e-14 -6.54663e-14 8.05789e-14 8.05789e-14 -9.12593e-14 -9.12593e-14 9.72453e-14 9.72453e-14 -9.8636e-14 -9.8636e-14 9.58415e-14 9.58415e-14 -8.95132e-14 -8.95132e-14 8.0465e-14 8.0465e-14 -6.95921e-14 -6.95921e-14 5.77936e-14 5.77936e-14 -4.59062e-14 -4.59062e-14 3.46508e-14 3.46508e-14 -2.45958e-14 -2.45958e-14 1.61377e-14 1.61377e-14 -9.49644e-15 -9.49644e-15 4.72639e-15 4.72639e-15 -1.73714e-15 -1.73714e-15 3.23054e-16 3.23054e-16 -1.96987e-16 -1.96987e-16 1.02518e-15 1.02518e-15 -2.46046e-15 -2.46046e-15 4.17135e-15 4.17135e-15 -5.86548e-15 -5.86548e-15 7.30632e-15 7.30632e-15 -8.32293e-15 -8.32293e-15 8.81312e-15 8.81312e-15 -8.74065e-15 -8.74065e-15 8.12776e-15 8.12776e-15 -7.04421e-15 -7.04421e-15 5.59428e-15 5.59428e-15 -3.90308e-15 -3.90308e-15 2.10321e-15 2.10321e-15 -3.22988e-16 -3.22988e-16 -1.32338e-15 -1.32338e-15 2.74297e-15 2.74297e-15 -3.86867e-15 -3.86867e-15 4.66101e-15 4.66101e-15 -5.1077e-15 -5.1077e-15 5.22111e-15 5.22111e-15 -5.03425e-15 -5.03425e-15 4.59586e-15 4.59586e-15 -3.96496e-15 -3.96496e-15 3.20545e-15 3.20545e-15 -2.38115e-15 -2.38115e-15 1.55144e-15 1.55144e-15 -7.67985e-16 -7.67985e-16 7.23262e-17 7.23262e-17 5.05409e-16 5.05409e-16 -9.46854e-16 -9.46854e-16 1.24489e-15 1.24489e-15 -1.40248e-15 -1.40248e-15 1.43096e-15 1.43096e-15 -1.34805e-15 -1.34805e-15 1.17578e-15 1.17578e-15 -9.38381e-16 -9.38381e-16 6.60442e-16 6.60442e-16 -3.65262e-16 -3.65262e-16 7.35894e-17 7.35894e-17 1.97279e-16 1.97279e-16 -4.34037e-16 -4.34037e-16 6.27554e-16 6.27554e-16 -7.72765e-16 -7.72765e-16 8.68315e-16 8.68315e-16 -9.16029e-16 -9.16029e-16 9.20263e-16 9.20263e-16 -8.87208e-16 -8.87208e-16 8.24197e-16 8.24197e-16 -7.39057e-16 -7.39057e-16 6.39549e-16 6.39549e-16 -5.32904e-16 -5.32904e-16 4.25485e-16 4.25485e-16 -3.22558e-16 -3.22558e-16 2.28176e-16 2.28176e-16 -1.45167e-16 -1.45167e-16 7.51931e-17 7.51931e-17 -1.88809e-17 -1.88809e-17 -2.40137e-17 -2.40137e-17 5.44141e-17 5.44141e-17 -7.37269e-17 -7.37269e-17 8.36545e-17 8.36545e-17 -8.6027e-17 -8.6027e-17 8.2661e-17 8.2661e-17 -7.52493e-17 -7.52493e-17 6.52832e-17 6.52832e-17 -5.40053e-17 -5.40053e-17 4.23903e-17 4.23903e-17 -3.11496e-17 -3.11496e-17 2.07526e-17 2.07526e-17 -1.14617e-17 -1.14617e-17 3.37365e-18 3.37365e-18 3.53621e-18 3.53621e-18 -9.37167e-18 -9.37167e-18 1.42776e-17 1.42776e-17 -1.84088e-17 -1.84088e-17 2.19065e-17 2.19065e-17 -2.48825e-17 -2.48825e-17 2.74118e-17 2.74118e-17 -2.95309e-17 -2.95309e-17 3.12421e-17 3.12421e-17 -3.25207e-17 -3.25207e-17 3.3326e-17 3.3326e-17 -3.36111e-17 -3.36111e-17 3.33342e-17 3.33342e-17 -3.24669e-17 -3.24669e-17 3.10015e-17 3.10015e-17 -2.8955e-17 -2.8955e-17 2.63704e-17 2.63704e-17 -2.33165e-17 -2.33165e-17 1.98839e-17 1.98839e-17 -1.61808e-17 -1.61808e-17 1.23265e-17 1.23265e-17 -8.44444e-18 -8.44444e-18 4.65621e-18 4.65621e-18 -1.07458e-18 -1.07458e-18 -2.20167e-18 -2.20167e-18 5.092e-18 5.092e-18 -7.53707e-18 -7.53707e-18 9.50014e-18 9.50014e-18 -1.09672e-17 -1.09672e-17 1.19456e-17 1.19456e-17 -1.24622e-17 -1.24622e-17 1.25596e-17 1.25596e-17 -1.2293e-17 -1.2293e-17 1.1726e-17 1.1726e-17 -1.09267e-17 -1.09267e-17 9.96394e-18 9.96394e-18 -8.90367e-18 -8.90367e-18 7.80644e-18 7.80644e-18 -6.72502e-18 -6.72502e-18 5.70293e-18 5.70293e-18 -4.77357e-18 -4.77357e-18 3.96008e-18 3.96008e-18 -3.27566e-18 -3.27566e-18 2.72447e-18 2.72447e-18 -2.3028e-18 -2.3028e-18 2.00053e-18 2.00053e-18 -1.80275e-18 -1.80275e-18 1.69131e-18 1.69131e-18 -1.64639e-18 -1.64639e-18 1.64791e-18 1.64791e-18 -1.67666e-18 -1.67666e-18 1.71533e-18 1.71533e-18 -1.74916e-18 -1.74916e-18 1.76642e-18 1.76642e-18 -1.75858e-18 -1.75858e-18 1.72032e-18 1.72032e-18 -1.64933e-18 -1.64933e-18 1.546e-18 1.546e-18 -1.41294e-18 -1.41294e-18 1.25454e-18 1.25454e-18 -1.07641e-18 -1.07641e-18 8.84884e-19 8.84884e-19 -6.86578e-19 -6.86578e-19 4.87945e-19 4.87945e-19 -2.94953e-19 -2.94953e-19 1.12823e-19 1.12823e-19 5.41509e-20 5.41509e-20 -2.027e-19 -2.027e-19 3.3061e-19 3.3061e-19 -4.36694e-19 -4.36694e-19 5.20705e-19 5.20705e-19 -5.83221e-19 -5.83221e-19 6.25507e-19 6.25507e-19 -6.49352e-19 -6.49352e-19 6.56922e-19 6.56922e-19 -6.50604e-19 -6.50604e-19 6.32873e-19 6.32873e-19 -6.06175e-19 -6.06175e-19 5.72827e-19 5.72827e-19 -5.34949e-19 -5.34949e-19 4.94411e-19 4.94411e-19 -4.52801e-19 -4.52801e-19 4.11417e-19 4.11417e-19 -3.71273e-19 -3.71273e-19 3.33112e-19 3.33112e-19 -2.97435e-19 -2.97435e-19 2.64534e-19 2.64534e-19 -2.34528e-19 -2.34528e-19 2.07397e-19 2.07397e-19 -1.83018e-19 -1.83018e-19 1.612e-19 1.612e-19 -1.41707e-19 -1.41707e-19 1.24284e-19 1.24284e-19 -1.08676e-19 -1.08676e-19 9.46403e-20 9.46403e-20 -8.1959e-20 -8.1959e-20 7.04413e-20 7.04413e-20 -5.99279e-20 -5.99279e-20 5.02904e-20 5.02904e-20 -4.14297e-20 -4.14297e-20 3.32723e-20 3.32723e-20 -2.57666e-20 -2.57666e-20 1.88781e-20 1.88781e-20 -1.25853e-20 -1.25853e-20 6.87565e-21 6.87565e-21 -1.74164e-21 -1.74164e-21 -2.82194e-21 -2.82194e-21 6.82069e-21 6.82069e-21 -1.02624e-20 -1.02624e-20 1.31583e-20 1.31583e-20 -1.55242e-20 -1.55242e-20 1.73805e-20 1.73805e-20 -1.87523e-20 -1.87523e-20 1.96698e-20 1.96698e-20 -2.01669e-20 -2.01669e-20 2.02815e-20 2.02815e-20 -2.00543e-20 -2.00543e-20 1.95281e-20 1.95281e-20 -1.87473e-20 -1.87473e-20 1.77567e-20 1.77567e-20 -1.66006e-20 -1.66006e-20 1.53226e-20 1.53226e-20 -1.39641e-20 -1.39641e-20 1.25639e-20 1.25639e-20 -1.11577e-20 -1.11577e-20 9.77727e-21 9.77727e-21 -8.45031e-21 -8.45031e-21 7.19982e-21 7.19982e-21 -6.04407e-21 -6.04407e-21 4.99654e-21 4.99654e-21 -4.06596e-21 -4.06596e-21 3.25655e-21 3.25655e-21 -2.56832e-21 -2.56832e-21 1.99754e-21 1.99754e-21 -1.53723e-21 -1.53723e-21 1.1778e-21 1.1778e-21 -9.0764e-22 -9.0764e-22 7.13805e-22 7.13805e-22 -5.82645e-22 -5.82645e-22 5.0042e-22 5.0042e-22 -4.53854e-22 -4.53854e-22 4.30617e-22 4.30617e-22 -4.19721e-22 -4.19721e-22 4.11819e-22 4.11819e-22 -3.99402e-22 -3.99402e-22 3.76896e-22 3.76896e-22 -3.40661e-22 -3.40661e-22 2.88907e-22 2.88907e-22 -2.21529e-22 -2.21529e-22 1.39885e-22 1.39885e-22 -4.65317e-23 -4.65317e-23 -5.50773e-23 -5.50773e-23 1.60893e-22 1.60893e-22 -2.66577e-22 -2.66577e-22 3.67783e-22 3.67783e-22 -4.60416e-22 -4.60416e-22 5.40845e-22 5.40845e-22 -6.06073e-22 -6.06073e-22 6.53859e-22 6.53859e-22 -6.8279e-22 -6.8279e-22 6.92301e-22 6.92301e-22 -6.82658e-22 -6.82658e-22 6.54887e-22 6.54887e-22 -6.10692e-22 -6.10692e-22 5.52328e-22 5.52328e-22 -4.82469e-22 -4.82469e-22 4.04066e-22 4.04066e-22 -3.20201e-22 -3.20201e-22 2.33949e-22 2.33949e-22 -1.48255e-22 -1.48255e-22 6.58203e-23 6.58203e-23 1.09819e-23 1.09819e-23 -8.01769e-23 -8.01769e-23 1.40231e-22 1.40231e-22 -1.90071e-22 -1.90071e-22 2.29088e-22 2.29088e-22 -2.57111e-22 -2.57111e-22 2.74376e-22 2.74376e-22 -2.81477e-22 -2.81477e-22 2.79303e-22 2.79303e-22 -2.68975e-22 -2.68975e-22 2.51781e-22 2.51781e-22 -2.29105e-22 -2.29105e-22 2.02367e-22 2.02367e-22 -1.72964e-22 -1.72964e-22 1.42217e-22 1.42217e-22 -1.11335e-22 -1.11335e-22 8.1379e-23 8.1379e-23 -5.32393e-23 -5.32393e-23 2.76257e-23 2.76257e-23 -5.06114e-24 -5.06114e-24 -1.41133e-23 -1.41133e-23 2.97278e-23 2.97278e-23 -4.17677e-23 -4.17677e-23 5.03529e-23 5.03529e-23 -5.5715e-23 -5.5715e-23 5.81725e-23 5.81725e-23 -5.81064e-23 -5.81064e-23 5.59361e-23 5.59361e-23 -5.20976e-23 -5.20976e-23 4.70234e-23 4.70234e-23 -4.11264e-23 -4.11264e-23 3.47857e-23 3.47857e-23 -2.83367e-23 -2.83367e-23 2.20642e-23 2.20642e-23 -1.61987e-23 -1.61987e-23 1.0915e-23 1.0915e-23 -6.33434e-24 -6.33434e-24 2.52717e-24 2.52717e-24 4.81185e-25 4.81185e-25 -2.70454e-24 -2.70454e-24 4.18887e-24 4.18887e-24 -5.00511e-24 -5.00511e-24 5.242e-24 5.242e-24 -4.99926e-24 -4.99926e-24 4.38142e-24 4.38142e-24 -3.49238e-24 -3.49238e-24 2.43088e-24 2.43088e-24 -1.28694e-24 -1.28694e-24 1.39221e-25 1.39221e-25 9.46687e-25 9.46687e-25 -1.91908e-24 -1.91908e-24 2.74025e-24 2.74025e-24 -3.38593e-24 -3.38593e-24 3.84425e-24 3.84425e-24 -4.11425e-24 -4.11425e-24 4.20421e-24 4.20421e-24 -4.12981e-24 -4.12981e-24 3.91221e-24 3.91221e-24 -3.57624e-24 -3.57624e-24 3.14872e-24 3.14872e-24 -2.6569e-24 -2.6569e-24 2.12719e-24 2.12719e-24 -1.58409e-24 -1.58409e-24 1.04941e-24 1.04941e-24 -5.41694e-25 -5.41694e-25 7.58981e-26 7.58981e-26 3.36711e-25 3.36711e-25 -6.88497e-25 -6.88497e-25 9.75237e-25 9.75237e-25 -1.19579e-24 -1.19579e-24 1.35169e-24 1.35169e-24 -1.44667e-24 -1.44667e-24 1.4862e-24 1.4862e-24 -1.47698e-24 -1.47698e-24 1.42651e-24 1.42651e-24 -1.34264e-24 -1.34264e-24 1.23325e-24 1.23325e-24 -1.10588e-24 -1.10588e-24 9.67543e-25 9.67543e-25 -8.24519e-25 -8.24519e-25 6.82227e-25 6.82227e-25 -5.45165e-25 -5.45165e-25 4.16894e-25 4.16894e-25 -3.00059e-25 -3.00059e-25 1.96443e-25 1.96443e-25 -1.07054e-25 -1.07054e-25 3.22168e-26 3.22168e-26 2.83116e-26 2.83116e-26 -7.52339e-26 -7.52339e-26 1.096e-25 1.096e-25 -1.32704e-25 -1.32704e-25 1.45988e-25 1.45988e-25 -1.50957e-25 -1.50957e-25 1.49116e-25 1.49116e-25 -1.41904e-25 -1.41904e-25 1.30659e-25 1.30659e-25 -1.16584e-25 -1.16584e-25 1.0073e-25 1.0073e-25 -8.39873e-26 -8.39873e-26 6.70852e-26 6.70852e-26 -5.05992e-26 -5.05992e-26 3.49627e-26 3.49627e-26 -2.04826e-26 -2.04826e-26 7.3563e-27 7.3563e-27 4.31002e-27 4.31002e-27 -1.44834e-26 -1.44834e-26 2.3187e-26 2.3187e-26 -3.04853e-26 -3.04853e-26 3.64699e-26 3.64699e-26 -4.12489e-26 -4.12489e-26 4.49378e-26 4.49378e-26 -4.76524e-26 -4.76524e-26 4.95038e-26 4.95038e-26 -5.05958e-26 -5.05958e-26 5.10226e-26 5.10226e-26 -5.08683e-26 -5.08683e-26 5.02077e-26 5.02077e-26 -4.91064e-26 -4.91064e-26 4.76228e-26 4.76228e-26 -4.58093e-26 -4.58093e-26 4.37133e-26 4.37133e-26 -4.13793e-26 -4.13793e-26 3.88491e-26 3.88491e-26 -3.6163e-26 -3.6163e-26 3.33606e-26 3.33606e-26 -3.04801e-26 -3.04801e-26 2.75594e-26 2.75594e-26 -2.46349e-26 -2.46349e-26 2.17418e-26 2.17418e-26 -1.8913e-26 -1.8913e-26 1.61792e-26 1.61792e-26 -1.3568e-26 -1.3568e-26 1.11035e-26 1.11035e-26 -8.80591e-27 -8.80591e-27 6.69121e-27 6.69121e-27 -4.77116e-27 -4.77116e-27 3.05315e-27 3.05315e-27 -1.5403e-27 -1.5403e-27 2.31722e-28 2.31722e-28 8.77187e-28 8.77187e-28 -1.79433e-27 -1.79433e-27 2.53043e-27 2.53043e-27 -3.09852e-27 -3.09852e-27 3.51341e-27 3.51341e-27 -3.79114e-27 -3.79114e-27 3.94848e-27 3.94848e-27 -4.00242e-27 -4.00242e-27 3.96976e-27 3.96976e-27 -3.86671e-27 -3.86671e-27 3.70859e-27 3.70859e-27 -3.50956e-27 -3.50956e-27 3.28245e-27 3.28245e-27 -3.0386e-27 -3.0386e-27 2.78784e-27 2.78784e-27 -2.53845e-27 -2.53845e-27 2.29717e-27 2.29717e-27 -2.06932e-27 -2.06932e-27 1.85886e