# vtk DataFile Version 3.0
#This file was generated by the deal.II library on 2020/8/11 at 22:17:20
ASCII
DATASET UNSTRUCTURED_GRID

POINTS 4096 double
0.5 0 0
0.743896 0 0
0.743896 0 0
0.987793 0 0
0.987793 0 0
1.23169 0 0
1.23169 0 0
1.47559 0 0
1.47559 0 0
1.71948 0 0
1.71948 0 0
1.96338 0 0
1.96338 0 0
2.20728 0 0
2.20728 0 0
2.45117 0 0
2.45117 0 0
2.69507 0 0
2.69507 0 0
2.93896 0 0
2.93896 0 0
3.18286 0 0
3.18286 0 0
3.42676 0 0
3.42676 0 0
3.67065 0 0
3.67065 0 0
3.91455 0 0
3.91455 0 0
4.15845 0 0
4.15845 0 0
4.40234 0 0
4.40234 0 0
4.64624 0 0
4.64624 0 0
4.89014 0 0
4.89014 0 0
5.13403 0 0
5.13403 0 0
5.37793 0 0
5.37793 0 0
5.62183 0 0
5.62183 0 0
5.86572 0 0
5.86572 0 0
6.10962 0 0
6.10962 0 0
6.35352 0 0
6.35352 0 0
6.59741 0 0
6.59741 0 0
6.84131 0 0
6.84131 0 0
7.08521 0 0
7.08521 0 0
7.3291 0 0
7.3291 0 0
7.573 0 0
7.573 0 0
7.81689 0 0
7.81689 0 0
8.06079 0 0
8.06079 0 0
8.30469 0 0
8.30469 0 0
8.54858 0 0
8.54858 0 0
8.79248 0 0
8.79248 0 0
9.03638 0 0
9.03638 0 0
9.28027 0 0
9.28027 0 0
9.52417 0 0
9.52417 0 0
9.76807 0 0
9.76807 0 0
10.012 0 0
10.012 0 0
10.2559 0 0
10.2559 0 0
10.4998 0 0
10.4998 0 0
10.7437 0 0
10.7437 0 0
10.9875 0 0
10.9875 0 0
11.2314 0 0
11.2314 0 0
11.4753 0 0
11.4753 0 0
11.7192 0 0
11.7192 0 0
11.9631 0 0
11.9631 0 0
12.207 0 0
12.207 0 0
12.4509 0 0
12.4509 0 0
12.6948 0 0
12.6948 0 0
12.9387 0 0
12.9387 0 0
13.1826 0 0
13.1826 0 0
13.4265 0 0
13.4265 0 0
13.6704 0 0
13.6704 0 0
13.9143 0 0
13.9143 0 0
14.1582 0 0
14.1582 0 0
14.4021 0 0
14.4021 0 0
14.646 0 0
14.646 0 0
14.8899 0 0
14.8899 0 0
15.1338 0 0
15.1338 0 0
15.3777 0 0
15.3777 0 0
15.6216 0 0
15.6216 0 0
15.8655 0 0
15.8655 0 0
16.1094 0 0
16.1094 0 0
16.3533 0 0
16.3533 0 0
16.5972 0 0
16.5972 0 0
16.8411 0 0
16.8411 0 0
17.085 0 0
17.085 0 0
17.3289 0 0
17.3289 0 0
17.5728 0 0
17.5728 0 0
17.8167 0 0
17.8167 0 0
18.0605 0 0
18.0605 0 0
18.3044 0 0
18.3044 0 0
18.5483 0 0
18.5483 0 0
18.7922 0 0
18.7922 0 0
19.0361 0 0
19.0361 0 0
19.28 0 0
19.28 0 0
19.5239 0 0
19.5239 0 0
19.7678 0 0
19.7678 0 0
20.0117 0 0
20.0117 0 0
20.2556 0 0
20.2556 0 0
20.4995 0 0
20.4995 0 0
20.7434 0 0
20.7434 0 0
20.9873 0 0
20.9873 0 0
21.2312 0 0
21.2312 0 0
21.4751 0 0
21.4751 0 0
21.719 0 0
21.719 0 0
21.9629 0 0
21.9629 0 0
22.2068 0 0
22.2068 0 0
22.4507 0 0
22.4507 0 0
22.6946 0 0
22.6946 0 0
22.9385 0 0
22.9385 0 0
23.1824 0 0
23.1824 0 0
23.4263 0 0
23.4263 0 0
23.6702 0 0
23.6702 0 0
23.9141 0 0
23.9141 0 0
24.158 0 0
24.158 0 0
24.4019 0 0
24.4019 0 0
24.6458 0 0
24.6458 0 0
24.8896 0 0
24.8896 0 0
25.1335 0 0
25.1335 0 0
25.3774 0 0
25.3774 0 0
25.6213 0 0
25.6213 0 0
25.8652 0 0
25.8652 0 0
26.1091 0 0
26.1091 0 0
26.353 0 0
26.353 0 0
26.5969 0 0
26.5969 0 0
26.8408 0 0
26.8408 0 0
27.0847 0 0
27.0847 0 0
27.3286 0 0
27.3286 0 0
27.5725 0 0
27.5725 0 0
27.8164 0 0
27.8164 0 0
28.0603 0 0
28.0603 0 0
28.3042 0 0
28.3042 0 0
28.5481 0 0
28.5481 0 0
28.792 0 0
28.792 0 0
29.0359 0 0
29.0359 0 0
29.2798 0 0
29.2798 0 0
29.5237 0 0
29.5237 0 0
29.7676 0 0
29.7676 0 0
30.0115 0 0
30.0115 0 0
30.2554 0 0
30.2554 0 0
30.4993 0 0
30.4993 0 0
30.7432 0 0
30.7432 0 0
30.9871 0 0
30.9871 0 0
31.231 0 0
31.231 0 0
31.4749 0 0
31.4749 0 0
31.7188 0 0
31.7188 0 0
31.9626 0 0
31.9626 0 0
32.2065 0 0
32.2065 0 0
32.4504 0 0
32.4504 0 0
32.6943 0 0
32.6943 0 0
32.9382 0 0
32.9382 0 0
33.1821 0 0
33.1821 0 0
33.426 0 0
33.426 0 0
33.6699 0 0
33.6699 0 0
33.9138 0 0
33.9138 0 0
34.1577 0 0
34.1577 0 0
34.4016 0 0
34.4016 0 0
34.6455 0 0
34.6455 0 0
34.8894 0 0
34.8894 0 0
35.1333 0 0
35.1333 0 0
35.3772 0 0
35.3772 0 0
35.6211 0 0
35.6211 0 0
35.865 0 0
35.865 0 0
36.1089 0 0
36.1089 0 0
36.3528 0 0
36.3528 0 0
36.5967 0 0
36.5967 0 0
36.8406 0 0
36.8406 0 0
37.0845 0 0
37.0845 0 0
37.3284 0 0
37.3284 0 0
37.5723 0 0
37.5723 0 0
37.8162 0 0
37.8162 0 0
38.0601 0 0
38.0601 0 0
38.304 0 0
38.304 0 0
38.5479 0 0
38.5479 0 0
38.7917 0 0
38.7917 0 0
39.0356 0 0
39.0356 0 0
39.2795 0 0
39.2795 0 0
39.5234 0 0
39.5234 0 0
39.7673 0 0
39.7673 0 0
40.0112 0 0
40.0112 0 0
40.2551 0 0
40.2551 0 0
40.499 0 0
40.499 0 0
40.7429 0 0
40.7429 0 0
40.9868 0 0
40.9868 0 0
41.2307 0 0
41.2307 0 0
41.4746 0 0
41.4746 0 0
41.7185 0 0
41.7185 0 0
41.9624 0 0
41.9624 0 0
42.2063 0 0
42.2063 0 0
42.4502 0 0
42.4502 0 0
42.6941 0 0
42.6941 0 0
42.938 0 0
42.938 0 0
43.1819 0 0
43.1819 0 0
43.4258 0 0
43.4258 0 0
43.6697 0 0
43.6697 0 0
43.9136 0 0
43.9136 0 0
44.1575 0 0
44.1575 0 0
44.4014 0 0
44.4014 0 0
44.6453 0 0
44.6453 0 0
44.8892 0 0
44.8892 0 0
45.1331 0 0
45.1331 0 0
45.377 0 0
45.377 0 0
45.6208 0 0
45.6208 0 0
45.8647 0 0
45.8647 0 0
46.1086 0 0
46.1086 0 0
46.3525 0 0
46.3525 0 0
46.5964 0 0
46.5964 0 0
46.8403 0 0
46.8403 0 0
47.0842 0 0
47.0842 0 0
47.3281 0 0
47.3281 0 0
47.572 0 0
47.572 0 0
47.8159 0 0
47.8159 0 0
48.0598 0 0
48.0598 0 0
48.3037 0 0
48.3037 0 0
48.5476 0 0
48.5476 0 0
48.7915 0 0
48.7915 0 0
49.0354 0 0
49.0354 0 0
49.2793 0 0
49.2793 0 0
49.5232 0 0
49.5232 0 0
49.7671 0 0
49.7671 0 0
50.011 0 0
50.011 0 0
50.2549 0 0
50.2549 0 0
50.4988 0 0
50.4988 0 0
50.7427 0 0
50.7427 0 0
50.9866 0 0
50.9866 0 0
51.2305 0 0
51.2305 0 0
51.4744 0 0
51.4744 0 0
51.7183 0 0
51.7183 0 0
51.9622 0 0
51.9622 0 0
52.2061 0 0
52.2061 0 0
52.45 0 0
52.45 0 0
52.6938 0 0
52.6938 0 0
52.9377 0 0
52.9377 0 0
53.1816 0 0
53.1816 0 0
53.4255 0 0
53.4255 0 0
53.6694 0 0
53.6694 0 0
53.9133 0 0
53.9133 0 0
54.1572 0 0
54.1572 0 0
54.4011 0 0
54.4011 0 0
54.645 0 0
54.645 0 0
54.8889 0 0
54.8889 0 0
55.1328 0 0
55.1328 0 0
55.3767 0 0
55.3767 0 0
55.6206 0 0
55.6206 0 0
55.8645 0 0
55.8645 0 0
56.1084 0 0
56.1084 0 0
56.3523 0 0
56.3523 0 0
56.5962 0 0
56.5962 0 0
56.8401 0 0
56.8401 0 0
57.084 0 0
57.084 0 0
57.3279 0 0
57.3279 0 0
57.5718 0 0
57.5718 0 0
57.8157 0 0
57.8157 0 0
58.0596 0 0
58.0596 0 0
58.3035 0 0
58.3035 0 0
58.5474 0 0
58.5474 0 0
58.7913 0 0
58.7913 0 0
59.0352 0 0
59.0352 0 0
59.2791 0 0
59.2791 0 0
59.5229 0 0
59.5229 0 0
59.7668 0 0
59.7668 0 0
60.0107 0 0
60.0107 0 0
60.2546 0 0
60.2546 0 0
60.4985 0 0
60.4985 0 0
60.7424 0 0
60.7424 0 0
60.9863 0 0
60.9863 0 0
61.2302 0 0
61.2302 0 0
61.4741 0 0
61.4741 0 0
61.718 0 0
61.718 0 0
61.9619 0 0
61.9619 0 0
62.2058 0 0
62.2058 0 0
62.4497 0 0
62.4497 0 0
62.6936 0 0
62.6936 0 0
62.9375 0 0
62.9375 0 0
63.1814 0 0
63.1814 0 0
63.4253 0 0
63.4253 0 0
63.6692 0 0
63.6692 0 0
63.9131 0 0
63.9131 0 0
64.157 0 0
64.157 0 0
64.4009 0 0
64.4009 0 0
64.6448 0 0
64.6448 0 0
64.8887 0 0
64.8887 0 0
65.1326 0 0
65.1326 0 0
65.3765 0 0
65.3765 0 0
65.6204 0 0
65.6204 0 0
65.8643 0 0
65.8643 0 0
66.1082 0 0
66.1082 0 0
66.3521 0 0
66.3521 0 0
66.5959 0 0
66.5959 0 0
66.8398 0 0
66.8398 0 0
67.0837 0 0
67.0837 0 0
67.3276 0 0
67.3276 0 0
67.5715 0 0
67.5715 0 0
67.8154 0 0
67.8154 0 0
68.0593 0 0
68.0593 0 0
68.3032 0 0
68.3032 0 0
68.5471 0 0
68.5471 0 0
68.791 0 0
68.791 0 0
69.0349 0 0
69.0349 0 0
69.2788 0 0
69.2788 0 0
69.5227 0 0
69.5227 0 0
69.7666 0 0
69.7666 0 0
70.0105 0 0
70.0105 0 0
70.2544 0 0
70.2544 0 0
70.4983 0 0
70.4983 0 0
70.7422 0 0
70.7422 0 0
70.9861 0 0
70.9861 0 0
71.23 0 0
71.23 0 0
71.4739 0 0
71.4739 0 0
71.7178 0 0
71.7178 0 0
71.9617 0 0
71.9617 0 0
72.2056 0 0
72.2056 0 0
72.4495 0 0
72.4495 0 0
72.6934 0 0
72.6934 0 0
72.9373 0 0
72.9373 0 0
73.1812 0 0
73.1812 0 0
73.425 0 0
73.425 0 0
73.6689 0 0
73.6689 0 0
73.9128 0 0
73.9128 0 0
74.1567 0 0
74.1567 0 0
74.4006 0 0
74.4006 0 0
74.6445 0 0
74.6445 0 0
74.8884 0 0
74.8884 0 0
75.1323 0 0
75.1323 0 0
75.3762 0 0
75.3762 0 0
75.6201 0 0
75.6201 0 0
75.864 0 0
75.864 0 0
76.1079 0 0
76.1079 0 0
76.3518 0 0
76.3518 0 0
76.5957 0 0
76.5957 0 0
76.8396 0 0
76.8396 0 0
77.0835 0 0
77.0835 0 0
77.3274 0 0
77.3274 0 0
77.5713 0 0
77.5713 0 0
77.8152 0 0
77.8152 0 0
78.0591 0 0
78.0591 0 0
78.303 0 0
78.303 0 0
78.5469 0 0
78.5469 0 0
78.7908 0 0
78.7908 0 0
79.0347 0 0
79.0347 0 0
79.2786 0 0
79.2786 0 0
79.5225 0 0
79.5225 0 0
79.7664 0 0
79.7664 0 0
80.0103 0 0
80.0103 0 0
80.2542 0 0
80.2542 0 0
80.498 0 0
80.498 0 0
80.7419 0 0
80.7419 0 0
80.9858 0 0
80.9858 0 0
81.2297 0 0
81.2297 0 0
81.4736 0 0
81.4736 0 0
81.7175 0 0
81.7175 0 0
81.9614 0 0
81.9614 0 0
82.2053 0 0
82.2053 0 0
82.4492 0 0
82.4492 0 0
82.6931 0 0
82.6931 0 0
82.937 0 0
82.937 0 0
83.1809 0 0
83.1809 0 0
83.4248 0 0
83.4248 0 0
83.6687 0 0
83.6687 0 0
83.9126 0 0
83.9126 0 0
84.1565 0 0
84.1565 0 0
84.4004 0 0
84.4004 0 0
84.6443 0 0
84.6443 0 0
84.8882 0 0
84.8882 0 0
85.1321 0 0
85.1321 0 0
85.376 0 0
85.376 0 0
85.6199 0 0
85.6199 0 0
85.8638 0 0
85.8638 0 0
86.1077 0 0
86.1077 0 0
86.3516 0 0
86.3516 0 0
86.5955 0 0
86.5955 0 0
86.8394 0 0
86.8394 0 0
87.0833 0 0
87.0833 0 0
87.3271 0 0
87.3271 0 0
87.571 0 0
87.571 0 0
87.8149 0 0
87.8149 0 0
88.0588 0 0
88.0588 0 0
88.3027 0 0
88.3027 0 0
88.5466 0 0
88.5466 0 0
88.7905 0 0
88.7905 0 0
89.0344 0 0
89.0344 0 0
89.2783 0 0
89.2783 0 0
89.5222 0 0
89.5222 0 0
89.7661 0 0
89.7661 0 0
90.01 0 0
90.01 0 0
90.2539 0 0
90.2539 0 0
90.4978 0 0
90.4978 0 0
90.7417 0 0
90.7417 0 0
90.9856 0 0
90.9856 0 0
91.2295 0 0
91.2295 0 0
91.4734 0 0
91.4734 0 0
91.7173 0 0
91.7173 0 0
91.9612 0 0
91.9612 0 0
92.2051 0 0
92.2051 0 0
92.449 0 0
92.449 0 0
92.6929 0 0
92.6929 0 0
92.9368 0 0
92.9368 0 0
93.1807 0 0
93.1807 0 0
93.4246 0 0
93.4246 0 0
93.6685 0 0
93.6685 0 0
93.9124 0 0
93.9124 0 0
94.1562 0 0
94.1562 0 0
94.4001 0 0
94.4001 0 0
94.644 0 0
94.644 0 0
94.8879 0 0
94.8879 0 0
95.1318 0 0
95.1318 0 0
95.3757 0 0
95.3757 0 0
95.6196 0 0
95.6196 0 0
95.8635 0 0
95.8635 0 0
96.1074 0 0
96.1074 0 0
96.3513 0 0
96.3513 0 0
96.5952 0 0
96.5952 0 0
96.8391 0 0
96.8391 0 0
97.083 0 0
97.083 0 0
97.3269 0 0
97.3269 0 0
97.5708 0 0
97.5708 0 0
97.8147 0 0
97.8147 0 0
98.0586 0 0
98.0586 0 0
98.3025 0 0
98.3025 0 0
98.5464 0 0
98.5464 0 0
98.7903 0 0
98.7903 0 0
99.0342 0 0
99.0342 0 0
99.2781 0 0
99.2781 0 0
99.522 0 0
99.522 0 0
99.7659 0 0
99.7659 0 0
100.01 0 0
100.01 0 0
100.254 0 0
100.254 0 0
100.498 0 0
100.498 0 0
100.741 0 0
100.741 0 0
100.985 0 0
100.985 0 0
101.229 0 0
101.229 0 0
101.473 0 0
[...]
POINT_DATA 4096
SCALARS solution_0 double 1
LOOKUP_TABLE default
8.54084e-13 -53.0274 -53.0274 -20.8951 -20.8951 -13.637 -13.637 -10.0785 -10.0785 -7.88293 -7.88293 -6.36607 -6.36607 -5.2425 -5.2425 -4.36664 -4.36664 -3.65349 -3.65349 -3.0498 -3.0498 -2.52344 -2.52344 -2.05996 -2.05996 -1.65939 -1.65939 -1.32858 -1.32858 -1.06891 -1.06891 -0.866376 -0.866376 -0.694155 -0.694155 -0.529426 -0.529426 -0.369866 -0.369866 -0.230878 -0.230878 -0.124155 -0.124155 -0.0427999 -0.0427999 0.0278171 0.0278171 0.0891838 0.0891838 0.128803 0.128803 0.138344 0.138344 0.121803 0.121803 0.0860171 0.0860171 0.0366752 0.0366752 -0.0126224 -0.0126224 -0.0394072 -0.0394072 -0.0260343 -0.0260343 0.0308462 0.0308462 0.121669 0.121669 0.228333 0.228333 0.337205 0.337205 0.462483 0.462483 0.653134 0.653134 0.964907 0.964907 1.42217 1.42217 2.00707 2.00707 2.68463 2.68463 3.43545 3.43545 4.25484 4.25484 5.11306 5.11306 5.92445 5.92445 6.56732 6.56732 6.93929 6.93929 6.99773 6.99773 6.74896 6.74896 6.20948 6.20948 5.40736 5.40736 4.42712 4.42712 3.40948 3.40948 2.47778 2.47778 1.68668 1.68668 1.05197 1.05197 0.591543 0.591543 0.307167 0.307167 0.15313 0.15313 0.0654485 0.0654485 0.0150199 0.0150199 0.000602365 0.000602365 0.00597908 0.00597908 0.00469185 0.00469185 -0.00418882 -0.00418882 -0.00378218 -0.00378218 0.00396028 0.00396028 0.00294716 0.00294716 -0.0038811 -0.0038811 -0.00196941 -0.00196941 0.00375618 0.00375618 0.000931537 0.000931537 -0.0034431 -0.0034431 1.38545e-05 1.38545e-05 0.002954 0.002954 -0.000780673 -0.000780673 -0.00236356 -0.00236356 0.00138996 0.00138996 0.00167027 0.00167027 -0.00184442 -0.00184442 -0.000813425 -0.000813425 0.0020168 0.0020168 -0.000158177 -0.000158177 -0.00173949 -0.00173949 0.000996382 0.000996382 0.00102036 0.00102036 -0.00139804 -0.00139804 -0.000126506 -0.000126506 0.00125024 0.00125024 -0.000577763 -0.000577763 -0.000718668 -0.000718668 0.000873019 0.000873019 0.0001066 0.0001066 -0.000776612 -0.000776612 0.000346809 0.000346809 0.000448553 0.000448553 -0.000547612 -0.000547612 -5.94871e-05 -5.94871e-05 0.000503895 0.000503895 -0.000258337 -0.000258337 -0.000275275 -0.000275275 0.000405168 0.000405168 -2.87463e-05 -2.87463e-05 -0.000336775 -0.000336775 0.000260666 0.000260666 0.000110309 0.000110309 -0.000308507 -0.000308507 0.000129691 0.000129691 0.000173889 0.000173889 -0.000244566 -0.000244566 3.36039e-05 3.36039e-05 0.000189659 0.000189659 -0.000178521 -0.000178521 -2.63673e-05 -2.63673e-05 0.000180952 0.000180952 -0.000125985 -0.000125985 -5.65877e-05 -5.65877e-05 0.000161933 0.000161933 -9.0374e-05 -9.0374e-05 -6.51878e-05 -6.51878e-05 0.000139212 0.000139212 -6.84283e-05 -6.84283e-05 -6.0213e-05 -6.0213e-05 0.000115542 0.000115542 -5.47831e-05 -5.47831e-05 -4.88525e-05 -4.88525e-05 9.27258e-05 9.27258e-05 -4.51394e-05 -4.51394e-05 -3.64794e-05 -3.64794e-05 7.25561e-05 7.25561e-05 -3.7514e-05 -3.7514e-05 -2.5876e-05 -2.5876e-05 5.62455e-05 5.62455e-05 -3.16383e-05 -3.16383e-05 -1.74539e-05 -1.74539e-05 4.37437e-05 4.37437e-05 -2.75504e-05 -2.75504e-05 -1.0489e-05 -1.0489e-05 3.39542e-05 3.39542e-05 -2.47122e-05 -2.47122e-05 -4.44328e-06 -4.44328e-06 2.56908e-05 2.56908e-05 -2.22011e-05 -2.22011e-05 5.72201e-07 5.72201e-07 1.84297e-05 1.84297e-05 -1.941e-05 -1.941e-05 4.23165e-06 4.23165e-06 1.22436e-05 1.22436e-05 -1.63515e-05 -1.63515e-05 6.54762e-06 6.54762e-06 7.22611e-06 7.22611e-06 -1.33024e-05 -1.33024e-05 7.87575e-06 7.87575e-06 3.16201e-06 3.16201e-06 -1.03205e-05 -1.03205e-05 8.48215e-06 8.48215e-06 -2.4348e-07 -2.4348e-07 -7.21232e-06 -7.21232e-06 8.28208e-06 8.28208e-06 -2.9712e-06 -2.9712e-06 -3.91986e-06 -3.91986e-06 7.07387e-06 7.07387e-06 -4.668e-06 -4.668e-06 -8.00357e-07 -8.00357e-07 4.97001e-06 4.97001e-06 -5.04317e-06 -5.04317e-06 1.55405e-06 1.55405e-06 2.51999e-06 2.51999e-06 -4.23963e-06 -4.23963e-06 2.7622e-06 2.7622e-06 3.99233e-07 3.99233e-07 -2.8001e-06 -2.8001e-06 2.90323e-06 2.90323e-06 -9.93048e-07 -9.93048e-07 -1.30973e-06 -1.30973e-06 2.36796e-06 2.36796e-06 -1.64535e-06 -1.64535e-06 -1.02534e-07 -1.02534e-07 1.53936e-06 1.53936e-06 -1.73611e-06 -1.73611e-06 7.31093e-07 7.31093e-07 6.40688e-07 6.40688e-07 -1.41834e-06 -1.41834e-06 1.16555e-06 1.16555e-06 -1.79339e-07 -1.79339e-07 -8.08195e-07 -8.08195e-07 1.16326e-06 1.16326e-06 -7.40599e-07 -7.40599e-07 -9.46177e-08 -9.46177e-08 7.69304e-07 7.69304e-07 -8.88957e-07 -8.88957e-07 4.54919e-07 4.54919e-07 1.94728e-07 1.94728e-07 -6.40438e-07 -6.40438e-07 6.46115e-07 6.46115e-07 -2.7229e-07 -2.7229e-07 -2.05571e-07 -2.05571e-07 4.9309e-07 4.9309e-07 -4.52536e-07 -4.52536e-07 1.58113e-07 1.58113e-07 1.81163e-07 1.81163e-07 -3.63886e-07 -3.63886e-07 3.10601e-07 3.10601e-07 -8.91537e-08 -8.91537e-08 -1.48192e-07 -1.48192e-07 2.64896e-07 2.64896e-07 -2.14446e-07 -2.14446e-07 5.14765e-08 5.14765e-08 1.15534e-07 1.15534e-07 -1.93413e-07 -1.93413e-07 1.53163e-07 1.53163e-07 -3.51688e-08 -3.51688e-08 -8.44186e-08 -8.44186e-08 1.40929e-07 1.40929e-07 -1.14043e-07 -1.14043e-07 3.11449e-08 3.11449e-08 5.5333e-08 5.5333e-08 -9.98308e-08 -9.98308e-08 8.62864e-08 8.62864e-08 -3.129e-08 -3.129e-08 -3.02707e-08 -3.02707e-08 6.63529e-08 6.63529e-08 -6.35064e-08 -6.35064e-08 3.01916e-08 3.01916e-08 1.16103e-08 1.16103e-08 -3.99447e-08 -3.99447e-08 4.37358e-08 4.37358e-08 -2.60522e-08 -2.60522e-08 -2.83899e-10 -2.83899e-10 2.09669e-08 2.09669e-08 -2.74475e-08 -2.74475e-08 1.98012e-08 1.98012e-08 -4.77721e-09 -4.77721e-09 -8.94261e-09 -8.94261e-09 1.53273e-08 1.53273e-08 -1.32295e-08 -1.32295e-08 5.73705e-09 5.73705e-09 2.34773e-09 2.34773e-09 -7.21572e-09 -7.21572e-09 7.5823e-09 7.5823e-09 -4.59786e-09 -4.59786e-09 6.07942e-10 6.07942e-10 2.31611e-09 2.31611e-09 -3.28213e-09 -3.28213e-09 2.62183e-09 2.62183e-09 -1.30114e-09 -1.30114e-09 1.91746e-10 1.91746e-10 3.61796e-10 3.61796e-10 -5.24896e-10 -5.24896e-10 6.45989e-10 6.45989e-10 -9.05783e-10 -9.05783e-10 1.17702e-09 1.17702e-09 -1.15057e-09 -1.15057e-09 6.04917e-10 6.04917e-10 3.80154e-10 3.80154e-10 -1.41026e-09 -1.41026e-09 1.97282e-09 1.97282e-09 -1.72386e-09 -1.72386e-09 6.9637e-10 6.9637e-10 6.89218e-10 6.89218e-10 -1.81923e-09 -1.81923e-09 2.18262e-09 2.18262e-09 -1.61605e-09 -1.61605e-09 3.77635e-10 3.77635e-10 9.80628e-10 9.80628e-10 -1.87245e-09 -1.87245e-09 1.94059e-09 1.94059e-09 -1.20251e-09 -1.20251e-09 1.98817e-11 1.98817e-11 1.08167e-09 1.08167e-09 -1.65065e-09 -1.65065e-09 1.49629e-09 1.49629e-09 -7.46788e-10 -7.46788e-10 -2.33897e-10 -2.33897e-10 1.02112e-09 1.02112e-09 -1.31265e-09 -1.31265e-09 1.04145e-09 1.04145e-09 -3.78241e-10 -3.78241e-10 -3.64725e-10 -3.64725e-10 8.77537e-10 8.77537e-10 -9.7888e-10 -9.7888e-10 6.74837e-10 6.74837e-10 -1.34313e-10 -1.34313e-10 -3.98608e-10 -3.98608e-10 7.11892e-10 7.11892e-10 -7.06539e-10 -7.06539e-10 4.22109e-10 4.22109e-10 -3.75237e-12 -3.75237e-12 -3.68415e-10 -3.68415e-10 5.54589e-10 5.54589e-10 -5.04844e-10 -5.04844e-10 2.66964e-10 2.66964e-10 4.47949e-11 4.47949e-11 -3.02499e-10 -3.02499e-10 4.15388e-10 4.15388e-10 -3.59475e-10 -3.59475e-10 1.77529e-10 1.77529e-10 4.62825e-11 4.62825e-11 -2.23773e-10 -2.23773e-10 2.96231e-10 2.96231e-10 -2.51969e-10 -2.51969e-10 1.2376e-10 1.2376e-10 2.98469e-11 2.98469e-11 -1.4988e-10 -1.4988e-10 1.98544e-10 1.98544e-10 -1.69663e-10 -1.69663e-10 8.59129e-11 8.59129e-11 1.40284e-11 1.40284e-11 -9.20541e-11 -9.20541e-11 1.24265e-10 1.24265e-10 -1.07187e-10 -1.07187e-10 5.55498e-11 5.55498e-11 6.13548e-12 6.13548e-12 -5.40856e-11 -5.40856e-11 7.36763e-11 7.36763e-11 -6.30971e-11 -6.30971e-11 3.17387e-11 3.17387e-11 5.18721e-12 5.18721e-12 -3.31871e-11 -3.31871e-11 4.36167e-11 4.36167e-11 -3.57914e-11 -3.57914e-11 1.58406e-11 1.58406e-11 6.71056e-12 6.71056e-12 -2.3002e-11 -2.3002e-11 2.79615e-11 2.79615e-11 -2.15219e-11 -2.15219e-11 7.82108e-12 7.82108e-12 6.98731e-12 6.98731e-12 -1.72878e-11 -1.72878e-11 1.99466e-11 1.99466e-11 -1.50502e-11 -1.50502e-11 5.37593e-12 5.37593e-12 5.00865e-12 5.00865e-12 -1.23784e-11 -1.23784e-11 1.46028e-11 1.46028e-11 -1.16405e-11 -1.16405e-11 5.22982e-12 5.22982e-12 1.98642e-12 1.98642e-12 -7.50387e-12 -7.50387e-12 9.78135e-12 9.78135e-12 -8.60103e-12 -8.60103e-12 4.92018e-12 4.92018e-12 -3.51821e-13 -3.51821e-13 -3.4851e-12 -3.4851e-12 5.5033e-12 5.5033e-12 -5.41065e-12 -5.41065e-12 3.65958e-12 3.65958e-12 -1.1561e-12 -1.1561e-12 -1.12916e-12 -1.12916e-12 2.49857e-12 2.49857e-12 -2.70828e-12 -2.70828e-12 1.96013e-12 1.96013e-12 -7.42228e-13 -7.42228e-13 -3.98536e-13 -3.98536e-13 1.06113e-12 1.06113e-12 -1.10502e-12 -1.10502e-12 6.51099e-13 6.51099e-13 1.12982e-14 1.12982e-14 -5.62047e-13 -5.62047e-13 7.76156e-13 7.76156e-13 -5.94905e-13 -5.94905e-13 1.25349e-13 1.25349e-13 4.20932e-13 4.20932e-13 -8.19275e-13 -8.19275e-13 9.1696e-13 9.1696e-13 -6.82602e-13 -6.82602e-13 2.07035e-13 2.07035e-13 3.38771e-13 3.38771e-13 -7.69292e-13 -7.69292e-13 9.48559e-13 9.48559e-13 -8.31435e-13 -8.31435e-13 4.70886e-13 4.70886e-13 7.37833e-15 7.37833e-15 -4.51084e-13 -4.51084e-13 7.31295e-13 7.31295e-13 -7.79832e-13 -7.79832e-13 6.03935e-13 6.03935e-13 -2.76249e-13 -2.76249e-13 -9.38622e-14 -9.38622e-14 3.96712e-13 3.96712e-13 -5.54474e-13 -5.54474e-13 5.4005e-13 5.4005e-13 -3.78696e-13 -3.78696e-13 1.34178e-13 1.34178e-13 1.14451e-13 1.14451e-13 -2.97411e-13 -2.97411e-13 3.72787e-13 3.72787e-13 -3.34599e-13 -3.34599e-13 2.09507e-13 2.09507e-13 -4.47026e-14 -4.47026e-14 -1.08278e-13 -1.08278e-13 2.08637e-13 2.08637e-13 -2.3617e-13 -2.3617e-13 1.93895e-13 1.93895e-13 -1.03788e-13 -1.03788e-13 -2.14092e-15 -2.14092e-15 9.22214e-14 9.22214e-14 -1.43836e-13 -1.43836e-13 1.48305e-13 1.48305e-13 -1.11185e-13 -1.11185e-13 4.8598e-14 4.8598e-14 1.87589e-14 1.87589e-14 -7.19381e-14 -7.19381e-14 9.86064e-14 9.86064e-14 -9.53648e-14 -9.53648e-14 6.72989e-14 6.72989e-14 -2.53248e-14 -2.53248e-14 -1.76012e-14 -1.76012e-14 5.02116e-14 5.02116e-14 -6.56142e-14 -6.56142e-14 6.23967e-14 6.23967e-14 -4.41211e-14 -4.41211e-14 1.76109e-14 1.76109e-14 9.31801e-15 9.31801e-15 -2.99989e-14 -2.99989e-14 4.03975e-14 4.03975e-14 -3.96719e-14 -3.96719e-14 2.98295e-14 2.98295e-14 -1.47321e-14 -1.47321e-14 -1.18133e-15 -1.18133e-15 1.40786e-14 1.40786e-14 -2.1546e-14 -2.1546e-14 2.28972e-14 2.28972e-14 -1.89992e-14 -1.89992e-14 1.17567e-14 1.17567e-14 -3.44985e-15 -3.44985e-15 -3.87931e-15 -3.87931e-15 8.85196e-15 8.85196e-15 -1.09251e-14 -1.09251e-14 1.03253e-14 1.03253e-14 -7.81425e-15 -7.81425e-15 4.38279e-15 4.38279e-15 -9.65784e-16 -9.65784e-16 -1.75646e-15 -1.75646e-15 3.44312e-15 3.44312e-15 -4.07238e-15 -4.07238e-15 3.84926e-15 3.84926e-15 -3.08535e-15 -3.08535e-15 2.09005e-15 2.09005e-15 -1.09892e-15 -1.09892e-15 2.47358e-16 2.47358e-16 4.17406e-16 4.17406e-16 -9.02481e-16 -9.02481e-16 1.23202e-15 1.23202e-15 -1.42086e-15 -1.42086e-15 1.46583e-15 1.46583e-15 -1.3535e-15 -1.3535e-15 1.07728e-15 1.07728e-15 -6.54415e-16 -6.54415e-16 1.34848e-16 1.34848e-16 4.02127e-16 4.02127e-16 -8.62877e-16 -8.62877e-16 1.16129e-15 1.16129e-15 -1.24063e-15 -1.24063e-15 1.08865e-15 1.08865e-15 -7.41625e-16 -7.41625e-16 2.76167e-16 2.76167e-16 2.08771e-16 2.08771e-16 -6.14725e-16 -6.14725e-16 8.65506e-16 8.65506e-16 -9.22669e-16 -9.22669e-16 7.91351e-16 7.91351e-16 -5.15816e-16 -5.15816e-16 1.66573e-16 1.66573e-16 1.77224e-16 1.77224e-16 -4.45616e-16 -4.45616e-16 5.91891e-16 5.91891e-16 -6.00058e-16 -6.00058e-16 4.84827e-16 4.84827e-16 -2.84943e-16 -2.84943e-16 5.21243e-17 5.21243e-17 1.61435e-16 1.61435e-16 -3.14115e-16 -3.14115e-16 3.82263e-16 3.82263e-16 -3.62818e-16 -3.62818e-16 2.71243e-16 2.71243e-16 -1.35852e-16 -1.35852e-16 -9.79541e-18 -9.79541e-18 1.34526e-16 1.34526e-16 -2.15645e-16 -2.15645e-16 2.42409e-16 2.42409e-16 -2.16563e-16 -2.16563e-16 1.50241e-16 1.50241e-16 -6.20689e-17 -6.20689e-17 -2.74911e-17 -2.74911e-17 1.00482e-16 1.00482e-16 -1.44662e-16 -1.44662e-16 1.55111e-16 1.55111e-16 -1.34159e-16 -1.34159e-16 8.99052e-17 8.99052e-17 -3.38339e-17 -3.38339e-17 -2.18674e-17 -2.18674e-17 6.67309e-17 6.67309e-17 -9.37435e-17 -9.37435e-17 1.00174e-16 1.00174e-16 -8.74754e-17 -8.74754e-17 6.04229e-17 6.04229e-17 -2.57684e-17 -2.57684e-17 -9.2694e-18 -9.2694e-18 3.83768e-17 3.83768e-17 -5.71514e-17 -5.71514e-17 6.3618e-17 6.3618e-17 -5.82377e-17 -5.82377e-17 4.34846e-17 4.34846e-17 -2.31302e-17 -2.31302e-17 1.40587e-18 1.40587e-18 1.77941e-17 1.77941e-17 -3.1536e-17 -3.1536e-17 3.8216e-17 3.8216e-17 -3.76477e-17 -3.76477e-17 3.08967e-17 3.08967e-17 -1.99246e-17 -1.99246e-17 7.13257e-18 7.13257e-18 5.10528e-18 5.10528e-18 -1.48375e-17 -1.48375e-17 2.08035e-17 2.08035e-17 -2.25471e-17 -2.25471e-17 2.0379e-17 2.0379e-17 -1.52149e-17 -1.52149e-17 8.33528e-18 8.33528e-18 -1.11838e-18 -1.11838e-18 -5.20463e-18 -5.20463e-18 9.73398e-18 9.73398e-18 -1.20025e-17 -1.20025e-17 1.19889e-17 1.19889e-17 -1.00529e-17 -1.00529e-17 6.81663e-18 6.81663e-18 -3.01844e-18 -3.01844e-18 -6.29422e-19 -6.29422e-19 3.55677e-18 3.55677e-18 -5.40853e-18 -5.40853e-18 6.06907e-18 6.06907e-18 -5.64129e-18 -5.64129e-18 4.39164e-18 4.39164e-18 -2.67608e-18 -2.67608e-18 8.63341e-19 8.63341e-19 7.30567e-19 7.30567e-19 -1.88693e-18 -1.88693e-18 2.50366e-18 2.50366e-18 -2.59054e-18 -2.59054e-18 2.24544e-18 2.24544e-18 -1.61948e-18 -1.61948e-18 8.79515e-19 8.79515e-19 -1.75203e-19 -1.75203e-19 -3.83935e-19 -3.83935e-19 7.3937e-19 7.3937e-19 -8.82632e-19 -8.82632e-19 8.45224e-19 8.45224e-19 -6.83209e-19 -6.83209e-19 4.60587e-19 4.60587e-19 -2.34998e-19 -2.34998e-19 4.80622e-20 4.80622e-20 7.86949e-20 7.86949e-20 -1.42768e-19 -1.42768e-19 1.55828e-19 1.55828e-19 -1.37014e-19 -1.37014e-19 1.06249e-19 1.06249e-19 -7.90766e-20 -7.90766e-20 6.38559e-20 6.38559e-20 -6.14606e-20 -6.14606e-20 6.70053e-20 6.70053e-20 -7.27593e-20 -7.27593e-20 7.12757e-20 7.12757e-20 -5.78929e-20 -5.78929e-20 3.20653e-20 3.20653e-20 2.64571e-21 2.64571e-21 -3.97323e-20 -3.97323e-20 7.16094e-20 7.16094e-20 -9.16342e-20 -9.16342e-20 9.57531e-20 9.57531e-20 -8.3404e-20 -8.3404e-20 5.75243e-20 5.75243e-20 -2.37384e-20 -2.37384e-20 -1.10135e-20 -1.10135e-20 4.00454e-20 4.00454e-20 -5.83225e-20 -5.83225e-20 6.33903e-20 6.33903e-20 -5.56737e-20 -5.56737e-20 3.81376e-20 3.81376e-20 -1.54416e-20 -1.54416e-20 -7.18371e-21 -7.18371e-21 2.50741e-20 2.50741e-20 -3.50414e-20 -3.50414e-20 3.58869e-20 3.58869e-20 -2.84508e-20 -2.84508e-20 1.52336e-20 1.52336e-20 2.89854e-22 2.89854e-22 -1.44895e-20 -1.44895e-20 2.43519e-20 2.43519e-20 -2.80494e-20 -2.80494e-20 2.52108e-20 2.52108e-20 -1.68684e-20 -1.68684e-20 5.12336e-21 5.12336e-21 7.37512e-21 7.37512e-21 -1.8013e-20 -1.8013e-20 2.47351e-20 2.47351e-20 -2.64096e-20 -2.64096e-20 2.29774e-20 2.29774e-20 -1.53776e-20 -1.53776e-20 5.28396e-21 5.28396e-21 5.27585e-21 5.27585e-21 -1.43354e-20 -1.43354e-20 2.03547e-20 2.03547e-20 -2.24714e-20 -2.24714e-20 2.06008e-20 2.06008e-20 -1.53825e-20 -1.53825e-20 7.99758e-21 7.99758e-21 9.57502e-23 9.57502e-23 -7.45018e-21 -7.45018e-21 1.28864e-20 1.28864e-20 -1.56751e-20 -1.56751e-20 1.56186e-20 1.56186e-20 -1.30291e-20 -1.30291e-20 8.6182e-21 8.6182e-21 -3.32829e-21 -3.32829e-21 -1.85758e-21 -1.85758e-21 6.09087e-21 6.09087e-21 -8.78811e-21 -8.78811e-21 9.69931e-21 9.69931e-21 -8.90934e-21 -8.90934e-21 6.78071e-21 6.78071e-21 -3.85495e-21 -3.85495e-21 7.35506e-22 7.35506e-22 2.02495e-21 2.02495e-21 -4.01331e-21 -4.01331e-21 5.00851e-21 5.00851e-21 -4.99311e-21 -4.99311e-21 4.12762e-21 4.12762e-21 -2.69689e-21 -2.69689e-21 1.04211e-21 1.04211e-21 5.07702e-22 5.07702e-22 -1.69236e-21 -1.69236e-21 2.35696e-21 2.35696e-21 -2.46429e-21 -2.46429e-21 2.08441e-21 2.08441e-21 -1.36639e-21 -1.36639e-21 4.99693e-22 4.99693e-22 3.26332e-22 3.26332e-22 -9.57312e-22 -9.57312e-22 1.29757e-21 1.29757e-21 -1.3199e-21 -1.3199e-21 1.06145e-21 1.06145e-21 -6.08374e-22 -6.08374e-22 7.35118e-23 7.35118e-23 4.28056e-22 4.28056e-22 -8.00731e-22 -8.00731e-22 9.83908e-22 9.83908e-22 -9.59211e-22 -9.59211e-22 7.49181e-22 7.49181e-22 -4.08679e-22 -4.08679e-22 1.1442e-23 1.1442e-23 3.65249e-22 3.65249e-22 -6.54835e-22 -6.54835e-22 8.12273e-22 8.12273e-22 -8.19865e-22 -8.19865e-22 6.87657e-22 6.87657e-22 -4.48973e-22 -4.48973e-22 1.52384e-22 1.52384e-22 1.48077e-22 1.48077e-22 -4.02606e-22 -4.02606e-22 5.7357e-22 5.7357e-22 -6.40555e-22 -6.40555e-22 6.0201e-22 6.0201e-22 -4.73578e-22 -4.73578e-22 2.83779e-22 2.83779e-22 -6.80644e-23 -6.80644e-23 -1.37612e-22 -1.37612e-22 3.02579e-22 3.02579e-22 -4.05738e-22 -4.05738e-22 4.37836e-22 4.37836e-22 -4.01592e-22 -4.01592e-22 3.09914e-22 3.09914e-22 -1.82723e-22 -1.82723e-22 4.30563e-23 4.30563e-23 8.68467e-23 8.68467e-23 -1.8886e-22 -1.8886e-22 2.51238e-22 2.51238e-22 -2.69612e-22 -2.69612e-22 2.46736e-22 2.46736e-22 -1.91162e-22 -1.91162e-22 1.15205e-22 1.15205e-22 -3.26045e-23 -3.26045e-23 -4.37275e-23 -4.37275e-23 1.03528e-22 1.03528e-22 -1.4036e-22 -1.4036e-22 1.52046e-22 1.52046e-22 -1.40404e-22 -1.40404e-22 1.10421e-22 1.10421e-22 -6.90562e-23 -6.90562e-23 2.39352e-23 2.39352e-23 1.78814e-23 1.78814e-23 -5.08578e-23 -5.08578e-23 7.15767e-23 7.15767e-23 -7.89265e-23 -7.89265e-23 7.39174e-23 7.39174e-23 -5.92075e-23 -5.92075e-23 3.84557e-23 3.84557e-23 -1.56248e-23 -1.56248e-23 -5.65228e-24 -5.65228e-24 2.25574e-23 2.25574e-23 -3.33738e-23 -3.33738e-23 3.75614e-23 3.75614e-23 -3.56445e-23 -3.56445e-23 2.89577e-23 2.89577e-23 -1.93116e-23 -1.93116e-23 8.64225e-24 8.64225e-24 1.30005e-24 1.30005e-24 -9.1818e-24 -9.1818e-24 1.42151e-23 1.42151e-23 -1.61817e-23 -1.61817e-23 1.53662e-23 1.53662e-23 -1.24235e-23 -1.24235e-23 8.21242e-24 8.21242e-24 -3.62709e-24 -3.62709e-24 -5.48443e-25 -5.48443e-25 3.74244e-24 3.74244e-24 -5.64683e-24 -5.64683e-24 6.218e-24 6.218e-24 -5.63559e-24 -5.63559e-24 4.23299e-24 4.23299e-24 -2.41531e-24 -2.41531e-24 5.80181e-25 5.80181e-25 9.46655e-25 9.46655e-25 -1.95285e-24 -1.95285e-24 2.35534e-24 2.35534e-24 -2.19217e-24 -2.19217e-24 1.59562e-24 1.59562e-24 -7.53944e-25 -7.53944e-25 -1.3016e-25 -1.3016e-25 8.76972e-25 8.76972e-25 -1.35763e-24 -1.35763e-24 1.50926e-24 1.50926e-24 -1.33684e-24 -1.33684e-24 9.03311e-25 9.03311e-25 -3.11388e-25 -3.11388e-25 -3.18913e-25 -3.18913e-25 8.72698e-25 8.72698e-25 -1.25897e-24 -1.25897e-24 1.42318e-24 1.42318e-24 -1.35232e-24 -1.35232e-24 1.07279e-24 1.07279e-24 -6.42132e-25 -6.42132e-25 1.36798e-25 1.36798e-25 3.61638e-25 3.61638e-25 -7.79584e-25 -7.79584e-25 1.06184e-24 1.06184e-24 -1.17808e-24 -1.17808e-24 1.12488e-24 1.12488e-24 -9.23521e-25 -9.23521e-25 6.14385e-25 6.14385e-25 -2.492e-25 -2.492e-25 -1.17512e-25 -1.17512e-25 4.36409e-25 4.36409e-25 -6.69672e-25 -6.69672e-25 7.94985e-25 7.94985e-25 -8.0689e-25 -8.0689e-25 7.15639e-25 7.15639e-25 -5.4401e-25 -5.4401e-25 3.22796e-25 3.22796e-25 -8.57443e-26 -8.57443e-26 -1.35273e-25 -1.35273e-25 3.14243e-25 3.14243e-25 -4.33697e-25 -4.33697e-25 4.85925e-25 4.85925e-25 -4.72737e-25 -4.72737e-25 4.03994e-25 4.03994e-25 -2.95291e-25 -2.95291e-25 1.65191e-25 1.65191e-25 -3.24595e-26 -3.24595e-26 -8.63537e-26 -8.63537e-26 1.78703e-25 1.78703e-25 -2.37069e-25 -2.37069e-25 2.59192e-25 2.59192e-25 -2.47594e-25 -2.47594e-25 2.08568e-25 2.08568e-25 -1.50836e-25 -1.50836e-25 8.4095e-26 8.4095e-26 -1.76716e-26 -1.76716e-26 -4.05807e-26 -4.05807e-26 8.50209e-26 8.50209e-26 -1.12568e-25 -1.12568e-25 1.22673e-25 1.22673e-25 -1.16978e-25 -1.16978e-25 9.87559e-26 9.87559e-26 -7.2241e-26 -7.2241e-26 4.19503e-26 4.19503e-26 -1.20832e-26 -1.20832e-26 -1.39368e-26 -1.39368e-26 3.37449e-26 3.37449e-26 -4.61378e-26 -4.61378e-26 5.10139e-26 5.10139e-26 -4.91874e-26 -4.91874e-26 4.21228e-26 4.21228e-26 -3.16358e-26 -3.16358e-26 1.9607e-26 1.9607e-26 -7.73975e-27 -7.73975e-27 -2.614e-27 -2.614e-27 1.05509e-26 1.05509e-26 -1.5639e-26 -1.5639e-26 1.78767e-26 1.78767e-26 -1.76066e-26 -1.76066e-26 1.54023e-26 1.54023e-26 -1.195e-26 -1.195e-26 7.93877e-27 7.93877e-27 -3.97419e-27 -3.97419e-27 5.19865e-28 5.19865e-28 2.13011e-27 2.13011e-27 -3.85112e-27 -3.85112e-27 4.66584e-27 4.66584e-27 -4.70768e-27 -4.70768e-27 4.17762e-27 4.17762e-27 -3.30151e-27 -3.30151e-27 2.29373e-27 2.29373e-27 -1.33048e-27 -1.33048e-27 5.34406e-28 5.34406e-28 2.97428e-29 2.97428e-29 -3.50327e-28 -3.50327e-28 4.57459e-28 4.57459e-28 -4.08132e-28 -4.08132e-28 2.70728e-28 2.70728e-28 -1.11247e-28 -1.11247e-