# vtk DataFile Version 3.0
#This file was generated by the deal.II library on 2020/8/11 at 23:23:02
ASCII
DATASET UNSTRUCTURED_GRID

POINTS 4096 double
0.5 0 0
0.743896 0 0
0.743896 0 0
0.987793 0 0
0.987793 0 0
1.23169 0 0
1.23169 0 0
1.47559 0 0
1.47559 0 0
1.71948 0 0
1.71948 0 0
1.96338 0 0
1.96338 0 0
2.20728 0 0
2.20728 0 0
2.45117 0 0
2.45117 0 0
2.69507 0 0
2.69507 0 0
2.93896 0 0
2.93896 0 0
3.18286 0 0
3.18286 0 0
3.42676 0 0
3.42676 0 0
3.67065 0 0
3.67065 0 0
3.91455 0 0
3.91455 0 0
4.15845 0 0
4.15845 0 0
4.40234 0 0
4.40234 0 0
4.64624 0 0
4.64624 0 0
4.89014 0 0
4.89014 0 0
5.13403 0 0
5.13403 0 0
5.37793 0 0
5.37793 0 0
5.62183 0 0
5.62183 0 0
5.86572 0 0
5.86572 0 0
6.10962 0 0
6.10962 0 0
6.35352 0 0
6.35352 0 0
6.59741 0 0
6.59741 0 0
6.84131 0 0
6.84131 0 0
7.08521 0 0
7.08521 0 0
7.3291 0 0
7.3291 0 0
7.573 0 0
7.573 0 0
7.81689 0 0
7.81689 0 0
8.06079 0 0
8.06079 0 0
8.30469 0 0
8.30469 0 0
8.54858 0 0
8.54858 0 0
8.79248 0 0
8.79248 0 0
9.03638 0 0
9.03638 0 0
9.28027 0 0
9.28027 0 0
9.52417 0 0
9.52417 0 0
9.76807 0 0
9.76807 0 0
10.012 0 0
10.012 0 0
10.2559 0 0
10.2559 0 0
10.4998 0 0
10.4998 0 0
10.7437 0 0
10.7437 0 0
10.9875 0 0
10.9875 0 0
11.2314 0 0
11.2314 0 0
11.4753 0 0
11.4753 0 0
11.7192 0 0
11.7192 0 0
11.9631 0 0
11.9631 0 0
12.207 0 0
12.207 0 0
12.4509 0 0
12.4509 0 0
12.6948 0 0
12.6948 0 0
12.9387 0 0
12.9387 0 0
13.1826 0 0
13.1826 0 0
13.4265 0 0
13.4265 0 0
13.6704 0 0
13.6704 0 0
13.9143 0 0
13.9143 0 0
14.1582 0 0
14.1582 0 0
14.4021 0 0
14.4021 0 0
14.646 0 0
14.646 0 0
14.8899 0 0
14.8899 0 0
15.1338 0 0
15.1338 0 0
15.3777 0 0
15.3777 0 0
15.6216 0 0
15.6216 0 0
15.8655 0 0
15.8655 0 0
16.1094 0 0
16.1094 0 0
16.3533 0 0
16.3533 0 0
16.5972 0 0
16.5972 0 0
16.8411 0 0
16.8411 0 0
17.085 0 0
17.085 0 0
17.3289 0 0
17.3289 0 0
17.5728 0 0
17.5728 0 0
17.8167 0 0
17.8167 0 0
18.0605 0 0
18.0605 0 0
18.3044 0 0
18.3044 0 0
18.5483 0 0
18.5483 0 0
18.7922 0 0
18.7922 0 0
19.0361 0 0
19.0361 0 0
19.28 0 0
19.28 0 0
19.5239 0 0
19.5239 0 0
19.7678 0 0
19.7678 0 0
20.0117 0 0
20.0117 0 0
20.2556 0 0
20.2556 0 0
20.4995 0 0
20.4995 0 0
20.7434 0 0
20.7434 0 0
20.9873 0 0
20.9873 0 0
21.2312 0 0
21.2312 0 0
21.4751 0 0
21.4751 0 0
21.719 0 0
21.719 0 0
21.9629 0 0
21.9629 0 0
22.2068 0 0
22.2068 0 0
22.4507 0 0
22.4507 0 0
22.6946 0 0
22.6946 0 0
22.9385 0 0
22.9385 0 0
23.1824 0 0
23.1824 0 0
23.4263 0 0
23.4263 0 0
23.6702 0 0
23.6702 0 0
23.9141 0 0
23.9141 0 0
24.158 0 0
24.158 0 0
24.4019 0 0
24.4019 0 0
24.6458 0 0
24.6458 0 0
24.8896 0 0
24.8896 0 0
25.1335 0 0
25.1335 0 0
25.3774 0 0
25.3774 0 0
25.6213 0 0
25.6213 0 0
25.8652 0 0
25.8652 0 0
26.1091 0 0
26.1091 0 0
26.353 0 0
26.353 0 0
26.5969 0 0
26.5969 0 0
26.8408 0 0
26.8408 0 0
27.0847 0 0
27.0847 0 0
27.3286 0 0
27.3286 0 0
27.5725 0 0
27.5725 0 0
27.8164 0 0
27.8164 0 0
28.0603 0 0
28.0603 0 0
28.3042 0 0
28.3042 0 0
28.5481 0 0
28.5481 0 0
28.792 0 0
28.792 0 0
29.0359 0 0
29.0359 0 0
29.2798 0 0
29.2798 0 0
29.5237 0 0
29.5237 0 0
29.7676 0 0
29.7676 0 0
30.0115 0 0
30.0115 0 0
30.2554 0 0
30.2554 0 0
30.4993 0 0
30.4993 0 0
30.7432 0 0
30.7432 0 0
30.9871 0 0
30.9871 0 0
31.231 0 0
31.231 0 0
31.4749 0 0
31.4749 0 0
31.7188 0 0
31.7188 0 0
31.9626 0 0
31.9626 0 0
32.2065 0 0
32.2065 0 0
32.4504 0 0
32.4504 0 0
32.6943 0 0
32.6943 0 0
32.9382 0 0
32.9382 0 0
33.1821 0 0
33.1821 0 0
33.426 0 0
33.426 0 0
33.6699 0 0
33.6699 0 0
33.9138 0 0
33.9138 0 0
34.1577 0 0
34.1577 0 0
34.4016 0 0
34.4016 0 0
34.6455 0 0
34.6455 0 0
34.8894 0 0
34.8894 0 0
35.1333 0 0
35.1333 0 0
35.3772 0 0
35.3772 0 0
35.6211 0 0
35.6211 0 0
35.865 0 0
35.865 0 0
36.1089 0 0
36.1089 0 0
36.3528 0 0
36.3528 0 0
36.5967 0 0
36.5967 0 0
36.8406 0 0
36.8406 0 0
37.0845 0 0
37.0845 0 0
37.3284 0 0
37.3284 0 0
37.5723 0 0
37.5723 0 0
37.8162 0 0
37.8162 0 0
38.0601 0 0
38.0601 0 0
38.304 0 0
38.304 0 0
38.5479 0 0
38.5479 0 0
38.7917 0 0
38.7917 0 0
39.0356 0 0
39.0356 0 0
39.2795 0 0
39.2795 0 0
39.5234 0 0
39.5234 0 0
39.7673 0 0
39.7673 0 0
40.0112 0 0
40.0112 0 0
40.2551 0 0
40.2551 0 0
40.499 0 0
40.499 0 0
40.7429 0 0
40.7429 0 0
40.9868 0 0
40.9868 0 0
41.2307 0 0
41.2307 0 0
41.4746 0 0
41.4746 0 0
41.7185 0 0
41.7185 0 0
41.9624 0 0
41.9624 0 0
42.2063 0 0
42.2063 0 0
42.4502 0 0
42.4502 0 0
42.6941 0 0
42.6941 0 0
42.938 0 0
42.938 0 0
43.1819 0 0
43.1819 0 0
43.4258 0 0
43.4258 0 0
43.6697 0 0
43.6697 0 0
43.9136 0 0
43.9136 0 0
44.1575 0 0
44.1575 0 0
44.4014 0 0
44.4014 0 0
44.6453 0 0
44.6453 0 0
44.8892 0 0
44.8892 0 0
45.1331 0 0
45.1331 0 0
45.377 0 0
45.377 0 0
45.6208 0 0
45.6208 0 0
45.8647 0 0
45.8647 0 0
46.1086 0 0
46.1086 0 0
46.3525 0 0
46.3525 0 0
46.5964 0 0
46.5964 0 0
46.8403 0 0
46.8403 0 0
47.0842 0 0
47.0842 0 0
47.3281 0 0
47.3281 0 0
47.572 0 0
47.572 0 0
47.8159 0 0
47.8159 0 0
48.0598 0 0
48.0598 0 0
48.3037 0 0
48.3037 0 0
48.5476 0 0
48.5476 0 0
48.7915 0 0
48.7915 0 0
49.0354 0 0
49.0354 0 0
49.2793 0 0
49.2793 0 0
49.5232 0 0
49.5232 0 0
49.7671 0 0
49.7671 0 0
50.011 0 0
50.011 0 0
50.2549 0 0
50.2549 0 0
50.4988 0 0
50.4988 0 0
50.7427 0 0
50.7427 0 0
50.9866 0 0
50.9866 0 0
51.2305 0 0
51.2305 0 0
51.4744 0 0
51.4744 0 0
51.7183 0 0
51.7183 0 0
51.9622 0 0
51.9622 0 0
52.2061 0 0
52.2061 0 0
52.45 0 0
52.45 0 0
52.6938 0 0
52.6938 0 0
52.9377 0 0
52.9377 0 0
53.1816 0 0
53.1816 0 0
53.4255 0 0
53.4255 0 0
53.6694 0 0
53.6694 0 0
53.9133 0 0
53.9133 0 0
54.1572 0 0
54.1572 0 0
54.4011 0 0
54.4011 0 0
54.645 0 0
54.645 0 0
54.8889 0 0
54.8889 0 0
55.1328 0 0
55.1328 0 0
55.3767 0 0
55.3767 0 0
55.6206 0 0
55.6206 0 0
55.8645 0 0
55.8645 0 0
56.1084 0 0
56.1084 0 0
56.3523 0 0
56.3523 0 0
56.5962 0 0
56.5962 0 0
56.8401 0 0
56.8401 0 0
57.084 0 0
57.084 0 0
57.3279 0 0
57.3279 0 0
57.5718 0 0
57.5718 0 0
57.8157 0 0
57.8157 0 0
58.0596 0 0
58.0596 0 0
58.3035 0 0
58.3035 0 0
58.5474 0 0
58.5474 0 0
58.7913 0 0
58.7913 0 0
59.0352 0 0
59.0352 0 0
59.2791 0 0
59.2791 0 0
59.5229 0 0
59.5229 0 0
59.7668 0 0
59.7668 0 0
60.0107 0 0
60.0107 0 0
60.2546 0 0
60.2546 0 0
60.4985 0 0
60.4985 0 0
60.7424 0 0
60.7424 0 0
60.9863 0 0
60.9863 0 0
61.2302 0 0
61.2302 0 0
61.4741 0 0
61.4741 0 0
61.718 0 0
61.718 0 0
61.9619 0 0
61.9619 0 0
62.2058 0 0
62.2058 0 0
62.4497 0 0
62.4497 0 0
62.6936 0 0
62.6936 0 0
62.9375 0 0
62.9375 0 0
63.1814 0 0
63.1814 0 0
63.4253 0 0
63.4253 0 0
63.6692 0 0
63.6692 0 0
63.9131 0 0
63.9131 0 0
64.157 0 0
64.157 0 0
64.4009 0 0
64.4009 0 0
64.6448 0 0
64.6448 0 0
64.8887 0 0
64.8887 0 0
65.1326 0 0
65.1326 0 0
65.3765 0 0
65.3765 0 0
65.6204 0 0
65.6204 0 0
65.8643 0 0
65.8643 0 0
66.1082 0 0
66.1082 0 0
66.3521 0 0
66.3521 0 0
66.5959 0 0
66.5959 0 0
66.8398 0 0
66.8398 0 0
67.0837 0 0
67.0837 0 0
67.3276 0 0
67.3276 0 0
67.5715 0 0
67.5715 0 0
67.8154 0 0
67.8154 0 0
68.0593 0 0
68.0593 0 0
68.3032 0 0
68.3032 0 0
68.5471 0 0
68.5471 0 0
68.791 0 0
68.791 0 0
69.0349 0 0
69.0349 0 0
69.2788 0 0
69.2788 0 0
69.5227 0 0
69.5227 0 0
69.7666 0 0
69.7666 0 0
70.0105 0 0
70.0105 0 0
70.2544 0 0
70.2544 0 0
70.4983 0 0
70.4983 0 0
70.7422 0 0
70.7422 0 0
70.9861 0 0
70.9861 0 0
71.23 0 0
71.23 0 0
71.4739 0 0
71.4739 0 0
71.7178 0 0
71.7178 0 0
71.9617 0 0
71.9617 0 0
72.2056 0 0
72.2056 0 0
72.4495 0 0
72.4495 0 0
72.6934 0 0
72.6934 0 0
72.9373 0 0
72.9373 0 0
73.1812 0 0
73.1812 0 0
73.425 0 0
73.425 0 0
73.6689 0 0
73.6689 0 0
73.9128 0 0
73.9128 0 0
74.1567 0 0
74.1567 0 0
74.4006 0 0
74.4006 0 0
74.6445 0 0
74.6445 0 0
74.8884 0 0
74.8884 0 0
75.1323 0 0
75.1323 0 0
75.3762 0 0
75.3762 0 0
75.6201 0 0
75.6201 0 0
75.864 0 0
75.864 0 0
76.1079 0 0
76.1079 0 0
76.3518 0 0
76.3518 0 0
76.5957 0 0
76.5957 0 0
76.8396 0 0
76.8396 0 0
77.0835 0 0
77.0835 0 0
77.3274 0 0
77.3274 0 0
77.5713 0 0
77.5713 0 0
77.8152 0 0
77.8152 0 0
78.0591 0 0
78.0591 0 0
78.303 0 0
78.303 0 0
78.5469 0 0
78.5469 0 0
78.7908 0 0
78.7908 0 0
79.0347 0 0
79.0347 0 0
79.2786 0 0
79.2786 0 0
79.5225 0 0
79.5225 0 0
79.7664 0 0
79.7664 0 0
80.0103 0 0
80.0103 0 0
80.2542 0 0
80.2542 0 0
80.498 0 0
80.498 0 0
80.7419 0 0
80.7419 0 0
80.9858 0 0
80.9858 0 0
81.2297 0 0
81.2297 0 0
81.4736 0 0
81.4736 0 0
81.7175 0 0
81.7175 0 0
81.9614 0 0
81.9614 0 0
82.2053 0 0
82.2053 0 0
82.4492 0 0
82.4492 0 0
82.6931 0 0
82.6931 0 0
82.937 0 0
82.937 0 0
83.1809 0 0
83.1809 0 0
83.4248 0 0
83.4248 0 0
83.6687 0 0
83.6687 0 0
83.9126 0 0
83.9126 0 0
84.1565 0 0
84.1565 0 0
84.4004 0 0
84.4004 0 0
84.6443 0 0
84.6443 0 0
84.8882 0 0
84.8882 0 0
85.1321 0 0
85.1321 0 0
85.376 0 0
85.376 0 0
85.6199 0 0
85.6199 0 0
85.8638 0 0
85.8638 0 0
86.1077 0 0
86.1077 0 0
86.3516 0 0
86.3516 0 0
86.5955 0 0
86.5955 0 0
86.8394 0 0
86.8394 0 0
87.0833 0 0
87.0833 0 0
87.3271 0 0
87.3271 0 0
87.571 0 0
87.571 0 0
87.8149 0 0
87.8149 0 0
88.0588 0 0
88.0588 0 0
88.3027 0 0
88.3027 0 0
88.5466 0 0
88.5466 0 0
88.7905 0 0
88.7905 0 0
89.0344 0 0
89.0344 0 0
89.2783 0 0
89.2783 0 0
89.5222 0 0
89.5222 0 0
89.7661 0 0
89.7661 0 0
90.01 0 0
90.01 0 0
90.2539 0 0
90.2539 0 0
90.4978 0 0
90.4978 0 0
90.7417 0 0
90.7417 0 0
90.9856 0 0
90.9856 0 0
91.2295 0 0
91.2295 0 0
91.4734 0 0
91.4734 0 0
91.7173 0 0
91.7173 0 0
91.9612 0 0
91.9612 0 0
92.2051 0 0
92.2051 0 0
92.449 0 0
92.449 0 0
92.6929 0 0
92.6929 0 0
92.9368 0 0
92.9368 0 0
93.1807 0 0
93.1807 0 0
93.4246 0 0
93.4246 0 0
93.6685 0 0
93.6685 0 0
93.9124 0 0
93.9124 0 0
94.1562 0 0
94.1562 0 0
94.4001 0 0
94.4001 0 0
94.644 0 0
94.644 0 0
94.8879 0 0
94.8879 0 0
95.1318 0 0
95.1318 0 0
95.3757 0 0
95.3757 0 0
95.6196 0 0
95.6196 0 0
95.8635 0 0
95.8635 0 0
96.1074 0 0
96.1074 0 0
96.3513 0 0
96.3513 0 0
96.5952 0 0
96.5952 0 0
96.8391 0 0
96.8391 0 0
97.083 0 0
97.083 0 0
97.3269 0 0
97.3269 0 0
97.5708 0 0
97.5708 0 0
97.8147 0 0
97.8147 0 0
98.0586 0 0
98.0586 0 0
98.3025 0 0
98.3025 0 0
98.5464 0 0
98.5464 0 0
98.7903 0 0
98.7903 0 0
99.0342 0 0
99.0342 0 0
99.2781 0 0
99.2781 0 0
99.522 0 0
99.522 0 0
99.7659 0 0
99.7659 0 0
100.01 0 0
100.01 0 0
100.254 0 0
100.254 0 0
100.498 0 0
100.498 0 0
100.741 0 0
100.741 0 0
100.985 0 0
100.985 0 0
101.229 0 0
101.229 0 0
101.473 0 0
[...]
POINT_DATA 4096
SCALARS solution_0 double 1
LOOKUP_TABLE default
-1.22211e-08 44.1163 44.1163 -48.315 -48.315 51.0827 51.0827 -52.0009 -52.0009 51.0944 51.0944 -48.2682 -48.2682 44.4837 44.4837 -38.9472 -38.9472 34.4415 34.4415 -27.0347 -27.0347 24.431 24.431 -14.775 -14.775 16.7845 16.7845 -3.51075 -3.51075 12.1332 12.1332 5.62154 5.62154 9.4544 9.4544 11.4075 11.4075 7.04162 7.04162 13.2462 13.2462 3.96372 3.96372 11.9137 11.9137 0.65833 0.65833 9.18081 9.18081 -1.86783 -1.86783 6.59525 6.59525 -3.11225 -3.11225 4.76297 4.76297 -3.29964 -3.29964 3.57972 3.57972 -2.93273 -2.93273 2.76713 2.76713 -2.39648 -2.39648 2.14622 2.14622 -1.87631 -1.87631 1.6463 1.6463 -1.43293 -1.43293 1.24397 1.24397 -1.07529 -1.07529 0.926455 0.926455 -0.795592 -0.795592 0.681178 0.681178 -0.581576 -0.581576 0.495233 0.495233 -0.420665 -0.420665 0.356494 0.356494 -0.301448 -0.301448 0.254372 0.254372 -0.214226 -0.214226 0.180079 0.180079 -0.151107 -0.151107 0.126582 0.126582 -0.105867 -0.105867 0.0884067 0.0884067 -0.0737179 -0.0737179 0.0613837 0.0613837 -0.0510447 -0.0510447 0.0423927 0.0423927 -0.0351638 -0.0351638 0.0291332 0.0291332 -0.0241095 -0.0241095 0.0199302 0.0199302 -0.0164581 -0.0164581 0.0135772 0.0135772 -0.0111896 -0.0111896 0.00921322 0.00921322 -0.00757903 -0.00757903 0.00622924 0.00622924 -0.0051155 -0.0051155 0.00419745 0.00419745 -0.00344143 -0.00344143 0.00281941 0.00281941 -0.0023081 -0.0023081 0.00188816 0.00188816 -0.00154354 -0.00154354 0.00126097 0.00126097 -0.00102945 -0.00102945 0.0008399 0.0008399 -0.000684827 -0.000684827 0.000558049 0.000558049 -0.000454474 -0.000454474 0.000369912 0.000369912 -0.000300917 -0.000300917 0.000244658 0.000244658 -0.000198813 -0.000198813 0.000161476 0.000161476 -0.000131085 -0.000131085 0.000106363 0.000106363 -8.62616e-05 -8.62616e-05 6.99271e-05 6.99271e-05 -5.666e-05 -5.666e-05 4.58899e-05 4.58899e-05 -3.7151e-05 -3.7151e-05 3.00636e-05 3.00636e-05 -2.43183e-05 -2.43183e-05 1.96631e-05 1.96631e-05 -1.58928e-05 -1.58928e-05 1.28405e-05 1.28405e-05 -1.03705e-05 -1.03705e-05 8.3726e-06 8.3726e-06 -6.75717e-06 -6.75717e-06 5.4515e-06 5.4515e-06 -4.39662e-06 -4.39662e-06 3.54466e-06 3.54466e-06 -2.85685e-06 -2.85685e-06 2.30176e-06 2.30176e-06 -1.85394e-06 -1.85394e-06 1.49279e-06 1.49279e-06 -1.20162e-06 -1.20162e-06 9.66958e-07 9.66958e-07 -7.77895e-07 -7.77895e-07 6.25619e-07 6.25619e-07 -5.0301e-07 -5.0301e-07 4.04319e-07 4.04319e-07 -3.24904e-07 -3.24904e-07 2.61018e-07 2.61018e-07 -2.09639e-07 -2.09639e-07 1.6833e-07 1.6833e-07 -1.35128e-07 -1.35128e-07 1.08447e-07 1.08447e-07 -8.70139e-08 -8.70139e-08 6.97999e-08 6.97999e-08 -5.59783e-08 -5.59783e-08 4.48833e-08 4.48833e-08 -3.59792e-08 -3.59792e-08 2.88352e-08 2.88352e-08 -2.31046e-08 -2.31046e-08 1.85089e-08 1.85089e-08 -1.48242e-08 -1.48242e-08 1.18706e-08 1.18706e-08 -9.50353e-09 -9.50353e-09 7.60694e-09 7.60694e-09 -6.08764e-09 -6.08764e-09 4.87084e-09 4.87084e-09 -3.8965e-09 -3.8965e-09 3.11648e-09 3.11648e-09 -2.49215e-09 -2.49215e-09 1.99252e-09 1.99252e-09 -1.59278e-09 -1.59278e-09 1.273e-09 1.273e-09 -1.01725e-09 -1.01725e-09 8.12743e-10 8.12743e-10 -6.49238e-10 -6.49238e-10 5.1854e-10 5.1854e-10 -4.14085e-10 -4.14085e-10 3.30617e-10 3.30617e-10 -2.63933e-10 -2.63933e-10 2.10665e-10 2.10665e-10 -1.68122e-10 -1.68122e-10 1.34149e-10 1.34149e-10 -1.07026e-10 -1.07026e-10 8.53734e-11 8.53734e-11 -6.80917e-11 -6.80917e-11 5.43003e-11 5.43003e-11 -4.32961e-11 -4.32961e-11 3.45171e-11 3.45171e-11 -2.75143e-11 -2.75143e-11 2.19293e-11 2.19293e-11 -1.74756e-11 -1.74756e-11 1.39245e-11 1.39245e-11 -1.10936e-11 -1.10936e-11 8.83704e-12 8.83704e-12 -7.0386e-12 -7.0386e-12 5.60545e-12 5.60545e-12 -4.46355e-12 -4.46355e-12 3.55384e-12 3.55384e-12 -2.82918e-12 -2.82918e-12 2.25202e-12 2.25202e-12 -1.79239e-12 -1.79239e-12 1.4264e-12 1.4264e-12 -1.13501e-12 -1.13501e-12 9.03041e-13 9.03041e-13 -7.18401e-13 -7.18401e-13 5.71449e-13 5.71449e-13 -4.54507e-13 -4.54507e-13 3.61456e-13 3.61456e-13 -2.87425e-13 -2.87425e-13 2.28532e-13 2.28532e-13 -1.81687e-13 -1.81687e-13 1.44429e-13 1.44429e-13 -1.148e-13 -1.148e-13 9.12397e-14 9.12397e-14 -7.25075e-14 -7.25075e-14 5.76154e-14 5.76154e-14 -4.57774e-14 -4.57774e-14 3.63682e-14 3.63682e-14 -2.88902e-14 -2.88902e-14 2.29477e-14 2.29477e-14 -1.82258e-14 -1.82258e-14 1.44741e-14 1.44741e-14 -1.14937e-14 -1.14937e-14 9.12612e-15 9.12612e-15 -7.2456e-15 -7.2456e-15 5.75206e-15 5.75206e-15 -4.56599e-15 -4.56599e-15 3.62417e-15 3.62417e-15 -2.87636e-15 -2.87636e-15 2.28267e-15 2.28267e-15 -1.81136e-15 -1.81136e-15 1.43725e-15 1.43725e-15 -1.14031e-15 -1.14031e-15 9.0464e-16 9.0464e-16 -7.17621e-16 -7.17621e-16 5.6922e-16 5.6922e-16 -4.51471e-16 -4.51471e-16 3.58052e-16 3.58052e-16 -2.83941e-16 -2.83941e-16 2.25153e-16 2.25153e-16 -1.78523e-16 -1.78523e-16 1.41539e-16 1.41539e-16 -1.12209e-16 -1.12209e-16 8.895e-17 8.895e-17 -7.05071e-17 -7.05071e-17 5.58841e-17 5.58841e-17 -4.42907e-17 -4.42907e-17 3.50999e-17 3.50999e-17 -2.78143e-17 -2.78143e-17 2.20394e-17 2.20394e-17 -1.74624e-17 -1.74624e-17 1.38349e-17 1.38349e-17 -1.09602e-17 -1.09602e-17 8.68226e-18 8.68226e-18 -6.8773e-18 -6.8773e-18 5.44721e-18 5.44721e-18 -4.31422e-18 -4.31422e-18 3.41667e-18 3.41667e-18 -2.70567e-18 -2.70567e-18 2.14249e-18 2.14249e-18 -1.69643e-18 -1.69643e-18 1.34316e-18 1.34316e-18 -1.06338e-18 -1.06338e-18 8.41835e-19 8.41835e-19 -6.66403e-19 -6.66403e-19 5.27499e-19 5.27499e-19 -4.17522e-19 -4.17522e-19 3.30455e-19 3.30455e-19 -2.61529e-19 -2.61529e-19 2.06967e-19 2.06967e-19 -1.63779e-19 -1.63779e-19 1.29595e-19 1.29595e-19 -1.02541e-19 -1.02541e-19 8.11298e-20 8.11298e-20 -6.41858e-20 -6.41858e-20 5.07778e-20 5.07778e-20 -4.01684e-20 -4.01684e-20 3.17741e-20 3.17741e-20 -2.51326e-20 -2.51326e-20 1.98782e-20 1.98782e-20 -1.57216e-20 -1.57216e-20 1.24334e-20 1.24334e-20 -9.83249e-21 -9.83249e-21 7.77524e-21 7.77524e-21 -6.14811e-21 -6.14811e-21 4.86125e-21 4.86125e-21 -3.84354e-21 -3.84354e-21 3.03874e-21 3.03874e-21 -2.40234e-21 -2.40234e-21 1.89913e-21 1.89913e-21 -1.50125e-21 -1.50125e-21 1.18667e-21 1.18667e-21 -9.37964e-22 -9.37964e-22 7.41348e-22 7.41348e-22 -5.85918e-22 -5.85918e-22 4.63054e-22 4.63054e-22 -3.65937e-22 -3.65937e-22 2.89175e-22 2.89175e-22 -2.28505e-22 -2.28505e-22 1.80555e-22 1.80555e-22 -1.42661e-22 -1.42661e-22 1.12715e-22 1.12715e-22 -8.90509e-23 -8.90509e-23 7.03519e-23 7.03519e-23 -5.55769e-23 -5.55769e-23 4.3903e-23 4.3903e-23 -3.46797e-23 -3.46797e-23 2.73929e-23 2.73929e-23 -2.16362e-23 -2.16362e-23 1.70886e-23 1.70886e-23 -1.34963e-23 -1.34963e-23 1.06587e-23 1.06587e-23 -8.41735e-24 -8.41735e-24 6.64705e-24 6.64705e-24 -5.24886e-24 -5.24886e-24 4.14461e-24 4.14461e-24 -3.27254e-24 -3.27254e-24 2.58386e-24 2.58386e-24 -2.04003e-24 -2.04003e-24 1.61059e-24 1.61059e-24 -1.27151e-24 -1.27151e-24 1.00377e-24 1.00377e-24 -7.92381e-25 -7.92381e-25 6.25485e-25 6.25485e-25 -4.93723e-25 -4.93723e-25 3.89703e-25 3.89703e-25 -3.07587e-25 -3.07587e-25 2.42765e-25 2.42765e-25 -1.91596e-25 -1.91596e-25 1.51208e-25 1.51208e-25 -1.19328e-25 -1.19328e-25 9.4167e-26 9.4167e-26 -7.43084e-26 -7.43084e-26 5.86356e-26 5.86356e-26 -4.62669e-26 -4.62669e-26 3.65059e-26 3.65059e-26 -2.88032e-26 -2.88032e-26 2.2725e-26 2.2725e-26 -1.79289e-26 -1.79289e-26 1.41445e-26 1.41445e-26 -1.11585e-26 -1.11585e-26 8.80256e-27 8.80256e-27 -6.94382e-27 -6.94382e-27 5.47739e-27 5.47739e-27 -4.3205e-27 -4.3205e-27 3.40785e-27 3.40785e-27 -2.6879e-27 -2.6879e-27 2.11998e-27 2.11998e-27 -1.672e-27 -1.672e-27 1.31864e-27 1.31864e-27 -1.03993e-27 -1.03993e-27 8.20099e-28 8.20099e-28 -6.46719e-28 -6.46719e-28 5.09978e-28 5.09978e-28 -4.02137e-28 -4.02137e-28 3.1709e-28 3.1709e-28 -2.50022e-28 -2.50022e-28 1.97134e-28 1.97134e-28 -1.55429e-28 -1.55429e-28 1.22543e-28 1.22543e-28 -9.6612e-29 -9.6612e-29 7.61661e-29 7.61661e-29 -6.00454e-29 -6.00454e-29 4.73353e-29 4.73353e-29 -3.73145e-29 -3.73145e-29 2.94143e-29 2.94143e-29 -2.3186e-29 -2.3186e-29 1.8276e-29 1.8276e-29 -1.44054e-29 -1.44054e-29 1.13542e-29 1.13542e-29 -8.94897e-30 -8.94897e-30 7.0531e-30 7.0531e-30 -5.55871e-30 -5.55871e-30 4.38083e-30 4.38083e-30 -3.45245e-30 -3.45245e-30 2.72074e-30 2.72074e-30 -2.14404e-30 -2.14404e-30 1.68954e-30 1.68954e-30 -1.33135e-30 -1.33135e-30 1.04907e-30 1.04907e-30 -8.2662e-31 -8.2662e-31 6.51322e-31 6.51322e-31 -5.13185e-31 -5.13185e-31 4.04334e-31 4.04334e-31 -3.18564e-31 -3.18564e-31 2.50981e-31 2.50981e-31 -1.97731e-31 -1.97731e-31 1.55775e-31 1.55775e-31 -1.22718e-31 -1.22718e-31 9.66739e-32 9.66739e-32 -7.61551e-32 -7.61551e-32 5.99899e-32 5.99899e-32 -4.72549e-32 -4.72549e-32 3.72224e-32 3.72224e-32 -2.93192e-32 -2.93192e-32 2.30934e-32 2.30934e-32 -1.81892e-32 -1.81892e-32 1.43262e-32 1.43262e-32 -1.12833e-32 -1.12833e-32 8.88652e-33 8.88652e-33 -6.99869e-33 -6.99869e-33 5.51178e-33 5.51178e-33 -4.34067e-33 -4.34067e-33 3.41831e-33 3.41831e-33 -2.69188e-33 -2.69188e-33 2.11978e-33 2.11978e-33 -1.66923e-33 -1.66923e-33 1.31441e-33 1.31441e-33 -1.03499e-33 -1.03499e-33 8.14951e-34 8.14951e-34 -6.41678e-34 -6.41678e-34 5.05235e-34 5.05235e-34 -3.97796e-34 -3.97796e-34 3.13197e-34 3.13197e-34 -2.46584e-34 -2.46584e-34 1.94135e-34 1.94135e-34 -1.52838e-34 -1.52838e-34 1.20324e-34 1.20324e-34 -9.47245e-35 -9.47245e-35 7.45699e-35 7.45699e-35 -5.87024e-35 -5.87024e-35 4.62102e-35 4.62102e-35 -3.63758e-35 -3.63758e-35 2.86337e-35 2.86337e-35 -2.25389e-35 -2.25389e-35 1.7741e-35 1.7741e-35 -1.39642e-35 -1.39642e-35 1.09912e-35 1.09912e-35 -8.651e-36 -8.651e-36 6.80892e-36 6.80892e-36 -5.35896e-36 -5.35896e-36 4.21769e-36 4.21769e-36 -3.31941e-36 -3.31941e-36 2.61239e-36 2.61239e-36 -2.05592e-36 -2.05592e-36 1.61795e-36 1.61795e-36 -1.27326e-36 -1.27326e-36 1.00198e-36 1.00198e-36 -7.88488e-37 -7.88488e-37 6.20471e-37 6.20471e-37 -4.88247e-37 -4.88247e-37 3.84193e-37 3.84193e-37 -3.02309e-37 -3.02309e-37 2.37873e-37 2.37873e-37 -1.87167e-37 -1.87167e-37 1.47268e-37 1.47268e-37 -1.15871e-37 -1.15871e-37 9.1167e-38 9.1167e-38 -7.17284e-38 -7.17284e-38 5.64335e-38 5.64335e-38 -4.43991e-38 -4.43991e-38 3.49304e-38 3.49304e-38 -2.74806e-38 -2.74806e-38 2.16192e-38 2.16192e-38 -1.70077e-38 -1.70077e-38 1.33797e-38 1.33797e-38 -1.05253e-38 -1.05253e-38 8.2798e-39 8.2798e-39 -6.51322e-39 -6.51322e-39 5.12347e-39 5.12347e-39 -4.03018e-39 -4.03018e-39 3.17014e-39 3.17014e-39 -2.49358e-39 -2.49358e-39 1.96138e-39 1.96138e-39 -1.54274e-39 -1.54274e-39 1.21344e-39 1.21344e-39 -9.54408e-40 -9.54408e-40 7.5066e-40 7.5066e-40 -5.90398e-40 -5.90398e-40 4.64344e-40 4.64344e-40 -3.65197e-40 -3.65197e-40 2.87216e-40 2.87216e-40 -2.25882e-40 -2.25882e-40 1.77643e-40 1.77643e-40 -1.39704e-40 -1.39704e-40 1.09865e-40 1.09865e-40 -8.63985e-41 -8.63985e-41 6.79434e-41 6.79434e-41 -5.34287e-41 -5.34287e-41 4.20151e-41 4.20151e-41 -3.30384e-41 -3.30384e-41 2.59787e-41 2.59787e-41 -2.04281e-41 -2.04281e-41 1.60631e-41 1.60631e-41 -1.26299e-41 -1.26299e-41 9.931e-42 9.931e-42 -7.80944e-42 -7.80944e-42 6.13909e-42 6.13909e-42 -4.82747e-42 -4.82747e-42 3.79612e-42 3.79612e-42 -2.98477e-42 -2.98477e-42 2.34577e-42 2.34577e-42 -1.84411e-42 -1.84411e-42 1.45034e-42 1.45034e-42 -1.14066e-42 -1.14066e-42 8.96831e-43 8.96831e-43 -7.04853e-43 -7.04853e-43 5.53513e-43 5.53513e-43 -4.35804e-43 -4.35804e-43 3.41917e-43 3.41917e-43 -2.69049e-43 -2.69049e-43 2.11596e-43 2.11596e-43 -1.66755e-43 -1.66755e-43 1.30321e-43 1.30321e-43 -1.02295e-43 -1.02295e-43 8.12753e-44 8.12753e-44 -6.30584e-44 -6.30584e-44 5.04467e-44 5.04467e-44 -3.92364e-44 -3.92364e-44 3.08286e-44 3.08286e-44 -2.38221e-44 -2.38221e-44 1.96182e-44 1.96182e-44 -1.54143e-44 -1.54143e-44 1.12104e-44 1.12104e-44 -9.80909e-45 -9.80909e-45 7.00649e-45 7.00649e-45 -5.60519e-45 -5.60519e-45 4.2039e-45 4.2039e-45 -4.2039e-45 -4.2039e-45 2.8026e-45 2.8026e-45 -2.8026e-45 -2.8026e-45 1.4013e-45 1.4013e-45 -1.4013e-45 -1.4013e-45 1.4013e-45 1.4013e-45 -1.4013e-45 -1.4013e-45 0 0 -0 -0 0 0 -0 -0 0 0 -0 -0 0 0 -0 -0 0 0 -0 -0 0 0 -0 -0 0 0 -0 -0 0 0 -0 -0 0 0 -0 -0 0 0 -0 -0 0 0 -0 -0 0 0 -0 -0 0 0 -0 -0 0 0 -0 -0 0 0 -0 -0 0 0 -0 -0 0 0 -0 -0 0 0 -0 -0 0 0 -0 -0 0 0 -0 -0 0 0 -0 -0 0 0 -0 -0 0 0 -0 -0 0 0 -0 -0 0 0 -0 -0 0 0 -0 -0 0 0 -0 -0 0 0 -0 -0 0 0 -0 -0 0 0 -0 -0 0 0 -0 -0 0 0 -0 -0 0 0 -0 -0 0 0 -0 -0 0 0 -0 -0 0 0 -0 -0 0 0 -0 -0 0 0 -0 -0 0 0 -0 -0 0 0 -0 -0 0 0 -0 -0 0 0 -0 -0 0 0 -0 -0 0 0 -0 -0 0 0 -0 -0 0 0 -0 -0 0 0 -0 -0 0 0 -0 -0 0 0 -0 -0 0 0 -0 -0 0 0 -0 -0 0 0 -0 -0 0 0 -0 -0 0 0 -0 -0 0 0 -0 -0 0 0 -0 -0 0 0 -0 -0 0 0 -0 -0 0 0 -0 -0 0 0 -0 -0 0 0 -0 -0 0 0 -0 -0 0 0 -0 -0 0 0 -0 -0 0 0 -0 -0 0 0 -0 -0 0 0 -0 -0 0 0 -0 -0 0 0 -0 -0 0 0 -0 -0 0 0 -0 -0 0 0 -0 -0 0 0 -0 -0 0 0 -0 -0 0 0 -0 -0 0 0 -0 -0 0 0 -0 -0 0 0 -0 -0 0 0 -0 -0 0 0 -0 -0 0 0 -0 -0 0 0 -0 -0 0 0 -0 -0 0 0 -0 -0 0 0 -0 -0 0 0 -0 -0 0 0 -0 -0 0 0 -0 -0 0 0 -0 -0 0 0 -0 -0 0 0 -0 -0 0 0 -0 -0 0 0 -0 -0 0 0 -0 -0 0 0 -0 -0 0 0 -0 -0 0 0 -0 -0 0 0 -0 -0 0 0 -0 -0 0 0 -0 -0 0 0 -0 -0 0 0 -0 -0 0 0 -0 -0 0 0 -0 -0 0 0 -0 -0 0 0 -0 -0 0 0 -0 -0 0 0 -0 -0 0 0 -0 -0 0 0 -0 -0 0 0 -0 -0 0 0 -0 -0 0 0 -0 -0 0 0 -0 -0 0 0 -0 -0 0 0 -0 -0 0 0 -0 -0 0 0 -0 -0 0 0 -0 -0 0 0 -0 -0 0 0 -0 -0 0 0 -0 -0 0 0 -0 -0 0 0 -0 -0 0 0 -0 -0 0 0 -0 -0 0 0 -0 -0 0 0 -0 -0 0 0 -0 -0 0 0 -0 -0 0 0 -0 -0 0 0 -0 -0 0 0 -0 -0 0 0 -0 -0 0 0 -0 -0 0 0 -0 -0 0 0 -0 -0 0 0 -0 -0 0 0 -0 -0 0 0 -0 -0 0 0 -0 -0 0 0 -0 -0 0 0 -0 -0 0 0 -0 -0 0 0 -0 -0 0 0 -0 -0 0 0 -0 -0 0 0 -0 -0 0 0 -0 -0 0 0 -0 -0 0 0 -0 -0 0 0 -0 -0 0 0 -0 -0 0 0 -0 -0 0 0 -0 -0 0 0 -0 -0 0 0 -0 -0 0 0 -0 -0 0 0 -0 -0 0 0 -0 -0 0 0 -0 -0 0 0 -0 -0 0 0 -0 -0 0 0 -0 -0 0 0 -0 -0 0 0 -0 -0 0 0 -0 -0 0 0 -0 -0 0 0 -0 -0 0 0 -0 -0 0 0 -0 -0 0 0 -0 -0 0 0 -0 -0 0 0 -0 -0 0 0 -0 -0 0 0 -0 -0 0 0 -0 -0 0 0 -0 -0 0 0 -0 -0 0 0 -0 -0 0 0 -0 -0 0 0 -0 -0 0 0 -0 -0 0 0 -0 -0 0 0 -0 -0 0 0 -0 -0 0 0 -0 -0 0 0 -0 -0 0 0 -0 -0 0 0 -0 -0 0 0 -0 -0 0 0 -0 -0 0 0 -0 -0 0 0 -0 -0 0 0 -0 -0 0 0 -0 -0 0 0 -0 -0 0 0 -0 -0 0 0 -0 -0 0 0 -0 -0 0 0 -0 -0 0 0 -0 -0 0 0 -0 -0 0 0 -0 -0 0 0 -0 -0 0 0 -0 -0 0 0 -0 -0 0 0 -0 -0 0 0 -0 -0 0 0 -0 -0 0 0 -0 -0 0 0 -0 -0 0 0 -0 -0 0 0 -0 -0 0 0 -0 -0 0 0 -0 -0 0 0 -0 -0 0 0 -0 -0 0 0 -0 -0 0 0 -0 -0 0 0 -0 -0 0 0 -0 -0 0 0 -0 -0 0 0 -0 -0 0 0 -0 -0 0 0 -0 -0 0 0 -0 -0 0 0 -0 -0 0 0 -0 -0 0 0 -0 -0 0 0 -0 -0 0 0 -0 -0 0 0 -0 -0 0 0 -0 -0 0 0 -0 -0 0 0 -0 -0 0 0 -0 -0 0 0 -0 -0 0 0 -0 -0 0 0 -0 -0 0 0 -0 -0 0 0 -0 -0 0 0 -0 -0 0 0 -0 -0 0 0 -0 -0 0 0 -0 -0 0 0 -0 -0 0 0 -0 -0 0 0 -0 -0 0 0 -0 -0 0 0 -0 -0 0 0 -0 -0 0 0 -0 -0 0 0 -0 -0 0 0 -0 -0 0 0 -0 -0 0 0 -0 -0 0 0 -0 -0 0 0 -0 -0 0 0 -0 -0 0 0 -0 -0 0 0 -0 -0 0 0 -0 -0 0 0 -0 -0 0 0 -0 -0 0 0 -0 -0 0 0 -0 -0 0 0 -0 -0 0 0 -0 -0 0 0 -0 -0 0 0 -0 -0 0 0 -0 -0 0 0 -0 -0 0 0 -0 -0 0 0 -0 -0 0 0 -0 -0 0 0 -0 -0 0 0 -0 -0 0 0 -0 -0 0 0 -0 -0 0 0 -0 -0 0 0 -0 -0 0 0 -0 -0 0 0 -0 -0 0 0 -0 -0 0 0 -0 -0 0 0 -0 -0 0 0 -0 -0 0 0 -0 -0 0 0 -0 -0 0 0 -0 -0 0 0 -0 -0 0 0 -0 -0 0 0 -0 -0 0 0 -0 -0 0 0 -0 -0 0 0 -0 -0 0 0 -0 -0 0 0 -0 -0 0 0 -0 -0 0 0 -0 -0 0 0 -0 -0 0 0 -0 -0 0 0 -0 -0 0 0 -0 -0 0 0 -0 -0 0 0 -0 -0 0 0 -0 -0 0 0 -0 -0 0 0 -0 -0 0 0 -0 -0 0 0 -0 -0 0 0 -0 -0 0 0 -0 -0 0 0 -0 -0 0 0 -0 -0 0 0 -0 -0 0 0 -0 -0 0 0 -0 -0 0 0 -0 -0 0 0 -0 -0 0 0 -0 -0 0 0 -0 -0 0 0 -0 -0 0 0 -0 -0 0 0 -0 -0 0 0 -0 -0 0 0 -0 -0 0 0 -0 -0 0 0 -0 -0 0 0 -0 -0 0 0 -0 -0 0 0 -0 -0 0 0 -0 -0 0 0 -0 -0 0 0 -0 -0 0 0 -0 -0 0 0 -0 -0 0 0 -0 -0 0 0 -0 -0 0 0 -0 -0 0 0 -0 -0 0 0 -0 -0 0 0 -0 -0 0 0 -0 -0 0 0 -0 -0 0 0 -0 -0 0 0 -0 -0 0 0 -0 -0 0 0 -0 -0 0 0 -0 -0 0 0 -0 -0 0 0 -0 -0 0 0 -0 -0 0 0 -0 -0 0 0 -0 -0 0 0 -0 -0 0 0 -0 -0 0 0 -0 -0 0 0 -0 -0 0 0 -0 -0 0 0 -0 -0 0 0 -0 -0 0 0 -0 -0 0 0 -0 -0 0 0 -0 -0 0 0 -0 -0 0 0 -0 -0 0 0 -0 -0 0 0 -0 -0 0 0 -0 -0 0 0 -0 -0 0 0 -0 -0 0 0 -0 -0 0 0 -0 -0 0 0 -0 -0 0 0 -0 -0 0 0 -0 -0 0 0 -0 -0 0 0 -0 -0 0 0 -0 -0 0 0 -0 -0 0 0 -0 -0 0 0 -0 -0 0 0 -0 -0 0 0 -0 -0 0 0 -0 -0 0 0 -0 -0 0 0 -0 -0 0 0 -0 -0 0 0 -0 -0 0 0 -0 -0 0 0 -0 -0 0 0 -0 -0 0 0 -0 -0 0 0 -0 -0 0 0 -0 -0 0 0 -0 -0 0 0 -0 -0 0 0 -0 -0 0 0 -0 -0 0 0 -0 -0 0 0 -0 -0 0 0 -0 -0 0 0 -0 -0 0 0 -0 -0 0 0 -0 -0 0 0 -0 -0 0 0 -0 -0 0 0 -0 -0 0 0 -0 -0 0 0 -0 -0 0 0 -0 -0 0 0 -0 -0 0 0 -0 -0 0 0 -0 -0 0 0 -0 -0 0 0 -0 -0 0 0 -0 -0 0 0 -0 -0 0 0 -0 -0 0 0 -0 -0 0 0 -0 -0 0 0 -0 -0 0 0 -0 -0 0 0 -0 -0 0 0 -0 -0 0 0 -0 -0 0 0 -0 -0 0 0 -0 -0 0 0 -0 -0 0 0 -0 -0 0 0 -0 -0 0 0 -0 -0 0 0 -0 -0 0 0 -0 -0 0 0 -0 -0 0 0 -0 -0 0 0 -0 -0 0 0 -0 -0 0 0 -0 -0 0 0 -0 -0 0 0 -0 -0 0 0 -0 -0 0 0 -0 -0 0 0 -0 -0 0 0 -0 -0 0 0 -0 -0 0 0 -0 -0 0 0 -0 -0 0 0 -0 -0 0 0 -0 -0 0 0 -0 -0 0 0 -0 -0 0 0 -0 -0 0 0 -0 -0 0 0 -0 -0 0 0 -0 -0 0 0 -0 -0 0 0 -0 -0 0 0 -0 -0 0 0 -0 -0 0 0 -0 -0 0 0 -0 -0 0 0 -0 -0 0 0 -0 -0 0 0 -0 -0 0 0 -0 -0 0 0 -0 -0 0 0 -0 -0 0 0 -0 -0 0 0 -0 -0 0 0 -0 -0 0 0 -0 -0 0 0 -0 -0 0 0 -0 -0 0 0 -0 -0 0 0 -0 -0 0 0 -0 -0 0 0 -0 -0 0 0 -0 -0 0 0 -0 -0 0 0 -0 -0 0 0 -0 -0 0 0 -0 -0 0 0 -0 -0 0 0 -0 -0 0 0 -0 -0 0 0 -0 -0 0 0 -0 -0 0 0 -0 -0 0 0 -0 -0 0 0 -0 -0 0 0 -0 -0 0 0 -0 -0 0 0 -0 -0 0 0 -0 -0 0 0 -0 -0 0 0 -0 -0 0 0 -0 -0 0 0 -0 -0 0 0 -0 -0 0 0 -0 -0 0 0 -0 -0 0 0 -0 -0 0 0 -0 -0 0 0 -0 -0 0 0 -0 -0 0 0 -0 -0 0 0 -0 -0 0 0 -0 -0 0 0 -0 -0 0 0 -0 -0 0 0 -0 -0 0 0 -0 -0 0 0 -0 -0 0 0 -0 -0 0 0 -0 -0 0 0 -0 -0 0 0 -0 -0 0 0 -0 -0 0 0 -0 -0 0 0 -0 -0 0 0 -0 -0 0 0 -0 -0 0 0 -0 -0 0 0 -0 -0 0 0 -0 -0 0 0 -0 -0 0 0 -0 -0 0 0 -0 -0 0 0 -0 -0 0 0 -0 -0 0 0 -0 -0 0 0 -0 -0 0 0 -0 -0 0 0 -0 -0 0 0 -0 -0 0 0 -0 -0 0 0 -0 -0 0 0 -0 -0 0 0 -0 -0 0 0 -0 -0 0 0 -0 -0 0 0 -0 -0 0 0 -0 -0 0 0 -0 -0 0 0 -0 -0 0 0 -0 -0 0 0 -0 -0 0 0 -0 -0 0 0 -0 -0 0 0 -0 -0 0 0 -0 -0 0 0 -0 -0 0 0 -0 -0 0 0 -0 -0 0 0 -0 -0 0 0 -0 -0 0 0 -0 -0 0 0 -0 -0 0 0 -0 -0 0 0 -0 -0 0 0 -0 -0 0 0 -0 -0 0 0 -0 -0 0 0 -0 -0 0 0 -0 -0 0 0 -0 -0 0 0 -0 -0 0 0 -0 -0 0 0 -0 -0 0 0 -0 -0 0 0 -0 -0 0 0 -0 -0 0 0 -0 -0 0 0 -0 -0 0 0 -0 -0 0 0 -0 -0 0 0 -0 -0 0 0 -0 -0 0 0 -0 -0 0 0 -0 -0 0 0 -0 -0 0 0 -0 -0 0 0 -0 -0 0 0 -0 -0 0 0 -0 -0 0 0 -0 -0 0 0 -0 -0 0 0 -0 -0 0 0 -0 -0 0 0 -0 -0 0 0 -0 -0 0 0 -0 -0 0 0 -0 -0 0 0 -0 -0 0 0 -0 -0 0 0 -0 -0 0 0 -0 -0 0 0 -0 -0 0 0 -0 -0 0 0 -0 -0 0 0 -0 -0 0 0 -0 -0 0 0 -0 -0 0 0 -0 -0 0 0 -0 -0 0 0 -0 -0 0 0 -0 -0 0 0 -0 -0 0 0 -0 -0 0 0 -0 -0 0 0 -0 -0 0 0 -0 -0 0 0 -0 -0 0 0 -0 -0 0 0 -0 -0 0 0 -0 -0 0 0 -0 -0 0 0 -0 -0 0 0 -0 -0 0 0 -0 -0 0 0 -0 -0 0 0 -0 -0 0 0 -0 -0 0 0 -0 -0 0 0 -0 -0 0 0 -0 -0 0 0 -0 -0 0 0 -0 -0 0 0 -0 -0 0 0 -0 -0 0 0 -0 -0 0 0 -0 -0 0 0 -0 -0 0 0 -0 -0 0 0 -0 -0 0 0 -0 -0 0 0 -0 -0 0 0 -0 -0 0 0 -0 -0 0 0 -0 -0 0 0 -0 -0 0 0 -0 -0 0 0 -0 -0 0 0 -0 -0 0 0 -0 -0 0 0 -0 -0 0 0 -0 -0 0 0 -0 -0 0 0 -0 -0 0 0 -0 -0 0 0 -0 -0 0 0 -0 -0 0 0 -0 -0 0 0 -0 -0 0 0 -0 -0 0 0 -0 -0 0 0 -0 -0 0 0 -0 -0 0 0 -0 -0 0 0 -0 -0 0 0 -0 -0 0 0 -0 -0 0 0 -0 -0 0 0 -0 -0 0 0 -0 -0 0 0 -0 -0 0 0 -0 -0 0 0 -0 -0 0 0 -0 -0 0 0 -0 -0 0 0 -0 -0 0 0 -0 -0 0 0 -0 -0 0 0 -0 -0 0 0 -0 -0 0 0 -0 -0 0 0 -0 -0 0 0 -0 -0 0 0 -0 -0 0 0 -0 -0 0 0 -0 -0 0 0 -0 -0 0 0 -0 -0 0 0 -0 -0 0 0 -0 -0 0 0 -0 -0 0 0 -0 -0 0 0 -0 -0 0 0 -0 -0 0 0 -0 -0 0 0 -0 -0 0 0 -0 -0 0 0 -0 -0 0 0 -0 -0 0 0 -0 -0 0 0 -0 -0 0 0 -0 -0 0 0 -0 -0 0 0 -0 -0 0 0 -0 -0 0 0 -0 -0 0 0 -0 -0 0 0 -0 -0 0 0 -0 -0 0 0 -0 -0 0 0 -0 -0 0 0 -0 -0 0 0 -0 -0 0 0 -0 -0 0 0 -0 -0 0 0 -0 -0 0 0 -0 -0 0 0 -0 -0 0 0 -0 -0 0 0 -0 -0 0 0 -0 -0 0 0 -0 -0 0 0 -0 -0 0 0 -0 -0 0 0 -0 -0 0 0 -0 -0 0 0 -0 -0 0 0 -0 -0 0 0 -0 -0 0 0 -0 -0 0 0 -0 -0 0 0 -0 -0 0 0 -0 -0 0 0 -0 -0 0 0 -0 -0 0 0 -0 -0 0 0 -0 -0 0 0 -0 -0 0 0 -0 -0 0 0 -0 -0 0 0 -0 -0 0 0 -0 -0 0 0 -0 -0 0 0 -0 -0 0 0 -0 -0 0 0 -0 -0 0 0 -0 -0 0 0 -0 -0 0 0 -0 -0 0 0 -0 -0 0 0 -0 -0 0 0 -0 -0 0 0 -0 -0 0 0 -0 -0 0 0 -0 -0 0 0 -0 -0 0 0 -0 -0 0 0 -0 -0 0 0 -0 -0 0 0 -0 -0 0 0 -0 -0 0 0 -0 -0 0 0 -0 -0 0 0 -0 -0 0 0 -0 -0 0 0 -0 -0 0 0 -0 -0 0 0 -0 -0 0 0 -0 -0 0 0 -0 -0 0 0 -0 -0 0 0 -0 -0 0 0 -0 -0 0 0 -0 -0 0 0 -0 -0 0 0 -0 -0 0 0 -0 -0 0 0 -0 -0 0 0 -0 -0 0 
SCALARS solution_1 double 1
LOOKUP_TABLE default