# vtk DataFile Version 3.0
#This file was generated by the deal.II library on 2020/8/11 at 22:18:17
ASCII
DATASET UNSTRUCTURED_GRID

POINTS 4096 double
0.5 0 0
0.743896 0 0
0.743896 0 0
0.987793 0 0
0.987793 0 0
1.23169 0 0
1.23169 0 0
1.47559 0 0
1.47559 0 0
1.71948 0 0
1.71948 0 0
1.96338 0 0
1.96338 0 0
2.20728 0 0
2.20728 0 0
2.45117 0 0
2.45117 0 0
2.69507 0 0
2.69507 0 0
2.93896 0 0
2.93896 0 0
3.18286 0 0
3.18286 0 0
3.42676 0 0
3.42676 0 0
3.67065 0 0
3.67065 0 0
3.91455 0 0
3.91455 0 0
4.15845 0 0
4.15845 0 0
4.40234 0 0
4.40234 0 0
4.64624 0 0
4.64624 0 0
4.89014 0 0
4.89014 0 0
5.13403 0 0
5.13403 0 0
5.37793 0 0
5.37793 0 0
5.62183 0 0
5.62183 0 0
5.86572 0 0
5.86572 0 0
6.10962 0 0
6.10962 0 0
6.35352 0 0
6.35352 0 0
6.59741 0 0
6.59741 0 0
6.84131 0 0
6.84131 0 0
7.08521 0 0
7.08521 0 0
7.3291 0 0
7.3291 0 0
7.573 0 0
7.573 0 0
7.81689 0 0
7.81689 0 0
8.06079 0 0
8.06079 0 0
8.30469 0 0
8.30469 0 0
8.54858 0 0
8.54858 0 0
8.79248 0 0
8.79248 0 0
9.03638 0 0
9.03638 0 0
9.28027 0 0
9.28027 0 0
9.52417 0 0
9.52417 0 0
9.76807 0 0
9.76807 0 0
10.012 0 0
10.012 0 0
10.2559 0 0
10.2559 0 0
10.4998 0 0
10.4998 0 0
10.7437 0 0
10.7437 0 0
10.9875 0 0
10.9875 0 0
11.2314 0 0
11.2314 0 0
11.4753 0 0
11.4753 0 0
11.7192 0 0
11.7192 0 0
11.9631 0 0
11.9631 0 0
12.207 0 0
12.207 0 0
12.4509 0 0
12.4509 0 0
12.6948 0 0
12.6948 0 0
12.9387 0 0
12.9387 0 0
13.1826 0 0
13.1826 0 0
13.4265 0 0
13.4265 0 0
13.6704 0 0
13.6704 0 0
13.9143 0 0
13.9143 0 0
14.1582 0 0
14.1582 0 0
14.4021 0 0
14.4021 0 0
14.646 0 0
14.646 0 0
14.8899 0 0
14.8899 0 0
15.1338 0 0
15.1338 0 0
15.3777 0 0
15.3777 0 0
15.6216 0 0
15.6216 0 0
15.8655 0 0
15.8655 0 0
16.1094 0 0
16.1094 0 0
16.3533 0 0
16.3533 0 0
16.5972 0 0
16.5972 0 0
16.8411 0 0
16.8411 0 0
17.085 0 0
17.085 0 0
17.3289 0 0
17.3289 0 0
17.5728 0 0
17.5728 0 0
17.8167 0 0
17.8167 0 0
18.0605 0 0
18.0605 0 0
18.3044 0 0
18.3044 0 0
18.5483 0 0
18.5483 0 0
18.7922 0 0
18.7922 0 0
19.0361 0 0
19.0361 0 0
19.28 0 0
19.28 0 0
19.5239 0 0
19.5239 0 0
19.7678 0 0
19.7678 0 0
20.0117 0 0
20.0117 0 0
20.2556 0 0
20.2556 0 0
20.4995 0 0
20.4995 0 0
20.7434 0 0
20.7434 0 0
20.9873 0 0
20.9873 0 0
21.2312 0 0
21.2312 0 0
21.4751 0 0
21.4751 0 0
21.719 0 0
21.719 0 0
21.9629 0 0
21.9629 0 0
22.2068 0 0
22.2068 0 0
22.4507 0 0
22.4507 0 0
22.6946 0 0
22.6946 0 0
22.9385 0 0
22.9385 0 0
23.1824 0 0
23.1824 0 0
23.4263 0 0
23.4263 0 0
23.6702 0 0
23.6702 0 0
23.9141 0 0
23.9141 0 0
24.158 0 0
24.158 0 0
24.4019 0 0
24.4019 0 0
24.6458 0 0
24.6458 0 0
24.8896 0 0
24.8896 0 0
25.1335 0 0
25.1335 0 0
25.3774 0 0
25.3774 0 0
25.6213 0 0
25.6213 0 0
25.8652 0 0
25.8652 0 0
26.1091 0 0
26.1091 0 0
26.353 0 0
26.353 0 0
26.5969 0 0
26.5969 0 0
26.8408 0 0
26.8408 0 0
27.0847 0 0
27.0847 0 0
27.3286 0 0
27.3286 0 0
27.5725 0 0
27.5725 0 0
27.8164 0 0
27.8164 0 0
28.0603 0 0
28.0603 0 0
28.3042 0 0
28.3042 0 0
28.5481 0 0
28.5481 0 0
28.792 0 0
28.792 0 0
29.0359 0 0
29.0359 0 0
29.2798 0 0
29.2798 0 0
29.5237 0 0
29.5237 0 0
29.7676 0 0
29.7676 0 0
30.0115 0 0
30.0115 0 0
30.2554 0 0
30.2554 0 0
30.4993 0 0
30.4993 0 0
30.7432 0 0
30.7432 0 0
30.9871 0 0
30.9871 0 0
31.231 0 0
31.231 0 0
31.4749 0 0
31.4749 0 0
31.7188 0 0
31.7188 0 0
31.9626 0 0
31.9626 0 0
32.2065 0 0
32.2065 0 0
32.4504 0 0
32.4504 0 0
32.6943 0 0
32.6943 0 0
32.9382 0 0
32.9382 0 0
33.1821 0 0
33.1821 0 0
33.426 0 0
33.426 0 0
33.6699 0 0
33.6699 0 0
33.9138 0 0
33.9138 0 0
34.1577 0 0
34.1577 0 0
34.4016 0 0
34.4016 0 0
34.6455 0 0
34.6455 0 0
34.8894 0 0
34.8894 0 0
35.1333 0 0
35.1333 0 0
35.3772 0 0
35.3772 0 0
35.6211 0 0
35.6211 0 0
35.865 0 0
35.865 0 0
36.1089 0 0
36.1089 0 0
36.3528 0 0
36.3528 0 0
36.5967 0 0
36.5967 0 0
36.8406 0 0
36.8406 0 0
37.0845 0 0
37.0845 0 0
37.3284 0 0
37.3284 0 0
37.5723 0 0
37.5723 0 0
37.8162 0 0
37.8162 0 0
38.0601 0 0
38.0601 0 0
38.304 0 0
38.304 0 0
38.5479 0 0
38.5479 0 0
38.7917 0 0
38.7917 0 0
39.0356 0 0
39.0356 0 0
39.2795 0 0
39.2795 0 0
39.5234 0 0
39.5234 0 0
39.7673 0 0
39.7673 0 0
40.0112 0 0
40.0112 0 0
40.2551 0 0
40.2551 0 0
40.499 0 0
40.499 0 0
40.7429 0 0
40.7429 0 0
40.9868 0 0
40.9868 0 0
41.2307 0 0
41.2307 0 0
41.4746 0 0
41.4746 0 0
41.7185 0 0
41.7185 0 0
41.9624 0 0
41.9624 0 0
42.2063 0 0
42.2063 0 0
42.4502 0 0
42.4502 0 0
42.6941 0 0
42.6941 0 0
42.938 0 0
42.938 0 0
43.1819 0 0
43.1819 0 0
43.4258 0 0
43.4258 0 0
43.6697 0 0
43.6697 0 0
43.9136 0 0
43.9136 0 0
44.1575 0 0
44.1575 0 0
44.4014 0 0
44.4014 0 0
44.6453 0 0
44.6453 0 0
44.8892 0 0
44.8892 0 0
45.1331 0 0
45.1331 0 0
45.377 0 0
45.377 0 0
45.6208 0 0
45.6208 0 0
45.8647 0 0
45.8647 0 0
46.1086 0 0
46.1086 0 0
46.3525 0 0
46.3525 0 0
46.5964 0 0
46.5964 0 0
46.8403 0 0
46.8403 0 0
47.0842 0 0
47.0842 0 0
47.3281 0 0
47.3281 0 0
47.572 0 0
47.572 0 0
47.8159 0 0
47.8159 0 0
48.0598 0 0
48.0598 0 0
48.3037 0 0
48.3037 0 0
48.5476 0 0
48.5476 0 0
48.7915 0 0
48.7915 0 0
49.0354 0 0
49.0354 0 0
49.2793 0 0
49.2793 0 0
49.5232 0 0
49.5232 0 0
49.7671 0 0
49.7671 0 0
50.011 0 0
50.011 0 0
50.2549 0 0
50.2549 0 0
50.4988 0 0
50.4988 0 0
50.7427 0 0
50.7427 0 0
50.9866 0 0
50.9866 0 0
51.2305 0 0
51.2305 0 0
51.4744 0 0
51.4744 0 0
51.7183 0 0
51.7183 0 0
51.9622 0 0
51.9622 0 0
52.2061 0 0
52.2061 0 0
52.45 0 0
52.45 0 0
52.6938 0 0
52.6938 0 0
52.9377 0 0
52.9377 0 0
53.1816 0 0
53.1816 0 0
53.4255 0 0
53.4255 0 0
53.6694 0 0
53.6694 0 0
53.9133 0 0
53.9133 0 0
54.1572 0 0
54.1572 0 0
54.4011 0 0
54.4011 0 0
54.645 0 0
54.645 0 0
54.8889 0 0
54.8889 0 0
55.1328 0 0
55.1328 0 0
55.3767 0 0
55.3767 0 0
55.6206 0 0
55.6206 0 0
55.8645 0 0
55.8645 0 0
56.1084 0 0
56.1084 0 0
56.3523 0 0
56.3523 0 0
56.5962 0 0
56.5962 0 0
56.8401 0 0
56.8401 0 0
57.084 0 0
57.084 0 0
57.3279 0 0
57.3279 0 0
57.5718 0 0
57.5718 0 0
57.8157 0 0
57.8157 0 0
58.0596 0 0
58.0596 0 0
58.3035 0 0
58.3035 0 0
58.5474 0 0
58.5474 0 0
58.7913 0 0
58.7913 0 0
59.0352 0 0
59.0352 0 0
59.2791 0 0
59.2791 0 0
59.5229 0 0
59.5229 0 0
59.7668 0 0
59.7668 0 0
60.0107 0 0
60.0107 0 0
60.2546 0 0
60.2546 0 0
60.4985 0 0
60.4985 0 0
60.7424 0 0
60.7424 0 0
60.9863 0 0
60.9863 0 0
61.2302 0 0
61.2302 0 0
61.4741 0 0
61.4741 0 0
61.718 0 0
61.718 0 0
61.9619 0 0
61.9619 0 0
62.2058 0 0
62.2058 0 0
62.4497 0 0
62.4497 0 0
62.6936 0 0
62.6936 0 0
62.9375 0 0
62.9375 0 0
63.1814 0 0
63.1814 0 0
63.4253 0 0
63.4253 0 0
63.6692 0 0
63.6692 0 0
63.9131 0 0
63.9131 0 0
64.157 0 0
64.157 0 0
64.4009 0 0
64.4009 0 0
64.6448 0 0
64.6448 0 0
64.8887 0 0
64.8887 0 0
65.1326 0 0
65.1326 0 0
65.3765 0 0
65.3765 0 0
65.6204 0 0
65.6204 0 0
65.8643 0 0
65.8643 0 0
66.1082 0 0
66.1082 0 0
66.3521 0 0
66.3521 0 0
66.5959 0 0
66.5959 0 0
66.8398 0 0
66.8398 0 0
67.0837 0 0
67.0837 0 0
67.3276 0 0
67.3276 0 0
67.5715 0 0
67.5715 0 0
67.8154 0 0
67.8154 0 0
68.0593 0 0
68.0593 0 0
68.3032 0 0
68.3032 0 0
68.5471 0 0
68.5471 0 0
68.791 0 0
68.791 0 0
69.0349 0 0
69.0349 0 0
69.2788 0 0
69.2788 0 0
69.5227 0 0
69.5227 0 0
69.7666 0 0
69.7666 0 0
70.0105 0 0
70.0105 0 0
70.2544 0 0
70.2544 0 0
70.4983 0 0
70.4983 0 0
70.7422 0 0
70.7422 0 0
70.9861 0 0
70.9861 0 0
71.23 0 0
71.23 0 0
71.4739 0 0
71.4739 0 0
71.7178 0 0
71.7178 0 0
71.9617 0 0
71.9617 0 0
72.2056 0 0
72.2056 0 0
72.4495 0 0
72.4495 0 0
72.6934 0 0
72.6934 0 0
72.9373 0 0
72.9373 0 0
73.1812 0 0
73.1812 0 0
73.425 0 0
73.425 0 0
73.6689 0 0
73.6689 0 0
73.9128 0 0
73.9128 0 0
74.1567 0 0
74.1567 0 0
74.4006 0 0
74.4006 0 0
74.6445 0 0
74.6445 0 0
74.8884 0 0
74.8884 0 0
75.1323 0 0
75.1323 0 0
75.3762 0 0
75.3762 0 0
75.6201 0 0
75.6201 0 0
75.864 0 0
75.864 0 0
76.1079 0 0
76.1079 0 0
76.3518 0 0
76.3518 0 0
76.5957 0 0
76.5957 0 0
76.8396 0 0
76.8396 0 0
77.0835 0 0
77.0835 0 0
77.3274 0 0
77.3274 0 0
77.5713 0 0
77.5713 0 0
77.8152 0 0
77.8152 0 0
78.0591 0 0
78.0591 0 0
78.303 0 0
78.303 0 0
78.5469 0 0
78.5469 0 0
78.7908 0 0
78.7908 0 0
79.0347 0 0
79.0347 0 0
79.2786 0 0
79.2786 0 0
79.5225 0 0
79.5225 0 0
79.7664 0 0
79.7664 0 0
80.0103 0 0
80.0103 0 0
80.2542 0 0
80.2542 0 0
80.498 0 0
80.498 0 0
80.7419 0 0
80.7419 0 0
80.9858 0 0
80.9858 0 0
81.2297 0 0
81.2297 0 0
81.4736 0 0
81.4736 0 0
81.7175 0 0
81.7175 0 0
81.9614 0 0
81.9614 0 0
82.2053 0 0
82.2053 0 0
82.4492 0 0
82.4492 0 0
82.6931 0 0
82.6931 0 0
82.937 0 0
82.937 0 0
83.1809 0 0
83.1809 0 0
83.4248 0 0
83.4248 0 0
83.6687 0 0
83.6687 0 0
83.9126 0 0
83.9126 0 0
84.1565 0 0
84.1565 0 0
84.4004 0 0
84.4004 0 0
84.6443 0 0
84.6443 0 0
84.8882 0 0
84.8882 0 0
85.1321 0 0
85.1321 0 0
85.376 0 0
85.376 0 0
85.6199 0 0
85.6199 0 0
85.8638 0 0
85.8638 0 0
86.1077 0 0
86.1077 0 0
86.3516 0 0
86.3516 0 0
86.5955 0 0
86.5955 0 0
86.8394 0 0
86.8394 0 0
87.0833 0 0
87.0833 0 0
87.3271 0 0
87.3271 0 0
87.571 0 0
87.571 0 0
87.8149 0 0
87.8149 0 0
88.0588 0 0
88.0588 0 0
88.3027 0 0
88.3027 0 0
88.5466 0 0
88.5466 0 0
88.7905 0 0
88.7905 0 0
89.0344 0 0
89.0344 0 0
89.2783 0 0
89.2783 0 0
89.5222 0 0
89.5222 0 0
89.7661 0 0
89.7661 0 0
90.01 0 0
90.01 0 0
90.2539 0 0
90.2539 0 0
90.4978 0 0
90.4978 0 0
90.7417 0 0
90.7417 0 0
90.9856 0 0
90.9856 0 0
91.2295 0 0
91.2295 0 0
91.4734 0 0
91.4734 0 0
91.7173 0 0
91.7173 0 0
91.9612 0 0
91.9612 0 0
92.2051 0 0
92.2051 0 0
92.449 0 0
92.449 0 0
92.6929 0 0
92.6929 0 0
92.9368 0 0
92.9368 0 0
93.1807 0 0
93.1807 0 0
93.4246 0 0
93.4246 0 0
93.6685 0 0
93.6685 0 0
93.9124 0 0
93.9124 0 0
94.1562 0 0
94.1562 0 0
94.4001 0 0
94.4001 0 0
94.644 0 0
94.644 0 0
94.8879 0 0
94.8879 0 0
95.1318 0 0
95.1318 0 0
95.3757 0 0
95.3757 0 0
95.6196 0 0
95.6196 0 0
95.8635 0 0
95.8635 0 0
96.1074 0 0
96.1074 0 0
96.3513 0 0
96.3513 0 0
96.5952 0 0
96.5952 0 0
96.8391 0 0
96.8391 0 0
97.083 0 0
97.083 0 0
97.3269 0 0
97.3269 0 0
97.5708 0 0
97.5708 0 0
97.8147 0 0
97.8147 0 0
98.0586 0 0
98.0586 0 0
98.3025 0 0
98.3025 0 0
98.5464 0 0
98.5464 0 0
98.7903 0 0
98.7903 0 0
99.0342 0 0
99.0342 0 0
99.2781 0 0
99.2781 0 0
99.522 0 0
99.522 0 0
99.7659 0 0
99.7659 0 0
100.01 0 0
100.01 0 0
100.254 0 0
100.254 0 0
100.498 0 0
100.498 0 0
100.741 0 0
100.741 0 0
100.985 0 0
100.985 0 0
101.229 0 0
101.229 0 0
101.473 0 0
[...]
POINT_DATA 4096
SCALARS solution_0 double 1
LOOKUP_TABLE default
0.00200353 -7.00661e+11 -7.00661e+11 -2.76094e+11 -2.76094e+11 -1.802e+11 -1.802e+11 -1.33201e+11 -1.33201e+11 -1.04238e+11 -1.04238e+11 -8.4292e+10 -8.4292e+10 -6.96309e+10 -6.96309e+10 -5.83877e+10 -5.83877e+10 -4.95064e+10 -4.95064e+10 -4.23368e+10 -4.23368e+10 -3.64525e+10 -3.64525e+10 -3.15602e+10 -3.15602e+10 -2.74503e+10 -2.74503e+10 -2.39682e+10 -2.39682e+10 -2.09971e+10 -2.09971e+10 -1.8447e+10 -1.8447e+10 -1.62471e+10 -1.62471e+10 -1.43411e+10 -1.43411e+10 -1.26834e+10 -1.26834e+10 -1.12368e+10 -1.12368e+10 -9.97088e+09 -9.97088e+09 -8.86009e+09 -8.86009e+09 -7.88316e+09 -7.88316e+09 -7.02219e+09 -7.02219e+09 -6.26196e+09 -6.26196e+09 -5.58956e+09 -5.58956e+09 -4.9939e+09 -4.9939e+09 -4.46547e+09 -4.46547e+09 -3.99609e+09 -3.99609e+09 -3.57864e+09 -3.57864e+09 -3.20698e+09 -3.20698e+09 -2.87574e+09 -2.87574e+09 -2.58025e+09 -2.58025e+09 -2.31641e+09 -2.31641e+09 -2.08064e+09 -2.08064e+09 -1.8698e+09 -1.8698e+09 -1.68111e+09 -1.68111e+09 -1.51212e+09 -1.51212e+09 -1.36069e+09 -1.36069e+09 -1.22492e+09 -1.22492e+09 -1.1031e+09 -1.1031e+09 -9.9376e+08 -9.9376e+08 -8.95561e+08 -8.95561e+08 -8.07328e+08 -8.07328e+08 -7.28013e+08 -7.28013e+08 -6.56686e+08 -6.56686e+08 -5.92515e+08 -5.92515e+08 -5.3476e+08 -5.3476e+08 -4.8276e+08 -4.8276e+08 -4.35925e+08 -4.35925e+08 -3.93728e+08 -3.93728e+08 -3.55698e+08 -3.55698e+08 -3.21412e+08 -3.21412e+08 -2.90492e+08 -2.90492e+08 -2.62601e+08 -2.62601e+08 -2.37435e+08 -2.37435e+08 -2.14721e+08 -2.14721e+08 -1.94216e+08 -1.94216e+08 -1.757e+08 -1.757e+08 -1.58976e+08 -1.58976e+08 -1.43868e+08 -1.43868e+08 -1.30217e+08 -1.30217e+08 -1.17879e+08 -1.17879e+08 -1.06727e+08 -1.06727e+08 -9.66431e+07 -9.66431e+07 -8.75246e+07 -8.75246e+07 -7.92772e+07 -7.92772e+07 -7.18165e+07 -7.18165e+07 -6.50662e+07 -6.50662e+07 -5.89578e+07 -5.89578e+07 -5.34293e+07 -5.34293e+07 -4.8425e+07 -4.8425e+07 -4.38943e+07 -4.38943e+07 -3.9792e+07 -3.9792e+07 -3.6077e+07 -3.6077e+07 -3.27123e+07 -3.27123e+07 -2.96644e+07 -2.96644e+07 -2.69032e+07 -2.69032e+07 -2.44014e+07 -2.44014e+07 -2.21343e+07 -2.21343e+07 -2.00797e+07 -2.00797e+07 -1.82175e+07 -1.82175e+07 -1.65294e+07 -1.65294e+07 -1.49991e+07 -1.49991e+07 -1.36116e+07 -1.36116e+07 -1.23534e+07 -1.23534e+07 -1.12124e+07 -1.12124e+07 -1.01776e+07 -1.01776e+07 -9.23904e+06 -9.23904e+06 -8.38763e+06 -8.38763e+06 -7.61524e+06 -7.61524e+06 -6.91447e+06 -6.91447e+06 -6.27863e+06 -6.27863e+06 -5.70164e+06 -5.70164e+06 -5.17803e+06 -5.17803e+06 -4.70281e+06 -4.70281e+06 -4.27147e+06 -4.27147e+06 -3.87994e+06 -3.87994e+06 -3.52452e+06 -3.52452e+06 -3.20184e+06 -3.20184e+06 -2.90888e+06 -2.90888e+06 -2.64288e+06 -2.64288e+06 -2.40134e+06 -2.40134e+06 -2.18199e+06 -2.18199e+06 -1.98279e+06 -1.98279e+06 -1.80187e+06 -1.80187e+06 -1.63755e+06 -1.63755e+06 -1.48828e+06 -1.48828e+06 -1.3527e+06 -1.3527e+06 -1.22952e+06 -1.22952e+06 -1.11762e+06 -1.11762e+06 -1.01594e+06 -1.01594e+06 -923565 -923565 -839625 -839625 -763348 -763348 -694032 -694032 -631038 -631038 -573786 -573786 -521751 -521751 -474454 -474454 -431462 -431462 -392382 -392382 -356855 -356855 -324558 -324558 -295195 -295195 -268499 -268499 -244226 -244226 -222155 -222155 -202086 -202086 -183837 -183837 -167241 -167241 -152149 -152149 -138424 -138424 -125941 -125941 -114587 -114587 -104260 -104260 -94867 -94867 -86322.9 -86322.9 -78550.7 -78550.7 -71480.4 -71480.4 -65048.5 -65048.5 -59197.1 -59197.1 -53873.6 -53873.6 -49030.3 -49030.3 -44623.6 -44623.6 -40614.2 -40614.2 -36966 -36966 -33646.4 -33646.4 -30625.7 -30625.7 -27877 -27877 -25375.6 -25375.6 -23099.3 -23099.3 -21027.7 -21027.7 -19142.4 -19142.4 -17426.5 -17426.5 -15864.9 -15864.9 -14443.5 -14443.5 -13149.8 -13149.8 -11972.2 -11972.2 -10900.4 -10900.4 -9924.69 -9924.69 -9036.56 -9036.56 -8228.09 -8228.09 -7492.12 -7492.12 -6822.12 -6822.12 -6212.18 -6212.18 -5656.88 -5656.88 -5151.34 -5151.34 -4691.07 -4691.07 -4272.01 -4272.01 -3890.47 -3890.47 -3543.07 -3543.07 -3226.76 -3226.76 -2938.74 -2938.74 -2676.49 -2676.49 -2437.68 -2437.68 -2220.23 -2220.23 -2022.21 -2022.21 -1841.88 -1841.88 -1677.67 -1677.67 -1528.12 -1528.12 -1391.93 -1391.93 -1267.9 -1267.9 -1154.95 -1154.95 -1052.07 -1052.07 -958.372 -958.372 -873.035 -873.035 -795.31 -795.31 -724.517 -724.517 -660.036 -660.036 -601.303 -601.303 -547.806 -547.806 -499.076 -499.076 -454.688 -454.688 -414.254 -414.254 -377.422 -377.422 -343.87 -343.87 -313.305 -313.305 -285.462 -285.462 -260.096 -260.096 -236.988 -236.988 -215.936 -215.936 -196.757 -196.757 -179.284 -179.284 -163.365 -163.365 -148.862 -148.862 -135.648 -135.648 -123.609 -123.609 -112.639 -112.639 -102.645 -102.645 -93.5385 -93.5385 -85.2411 -85.2411 -77.6807 -77.6807 -70.7919 -70.7919 -64.5147 -64.5147 -58.7949 -58.7949 -53.5829 -53.5829 -48.8335 -48.8335 -44.5057 -44.5057 -40.5619 -40.5619 -36.968 -36.968 -33.6929 -33.6929 -30.7084 -30.7084 -27.9885 -27.9885 -25.5099 -25.5099 -23.251 -23.251 -21.1924 -21.1924 -19.3162 -19.3162 -17.6064 -17.6064 -16.0481 -16.0481 -14.6279 -14.6279 -13.3335 -13.3335 -12.1538 -12.1538 -11.0785 -11.0785 -10.0986 -10.0986 -9.20534 -9.20534 -8.39122 -8.39122 -7.64917 -7.64917 -6.97281 -6.97281 -6.3563 -6.3563 -5.79433 -5.79433 -5.28206 -5.28206 -4.81508 -4.81508 -4.38935 -4.38935 -4.00118 -4.00118 -3.64722 -3.64722 -3.32437 -3.32437 -3.02982 -3.02982 -2.76096 -2.76096 -2.5154 -2.5154 -2.29092 -2.29092 -2.0855 -2.0855 -1.89721 -1.89721 -1.7243 -1.7243 -1.56512 -1.56512 -1.41817 -1.41817 -1.28206 -1.28206 -1.15553 -1.15553 -1.03749 -1.03749 -0.926991 -0.926991 -0.823277 -0.823277 -0.725778 -0.725778 -0.63412 -0.63412 -0.548122 -0.548122 -0.467776 -0.467776 -0.39321 -0.39321 -0.324637 -0.324637 -0.262293 -0.262293 -0.206368 -0.206368 -0.156945 -0.156945 -0.113945 -0.113945 -0.0771058 -0.0771058 -0.045986 -0.045986 -0.0199984 -0.0199984 0.00153114 0.00153114 0.0192976 0.0192976 0.0339619 0.0339619 0.0461284 0.0461284 0.0563709 0.0563709 0.0653145 0.0653145 0.0737644 0.0737644 0.0828601 0.0828601 0.0942181 0.0942181 0.110026 0.110026 0.133051 0.133051 0.166547 0.166547 0.214057 0.214057 0.279145 0.279145 0.365087 0.365087 0.47458 0.47458 0.609487 0.609487 0.77065 0.77065 0.957744 0.957744 1.16915 1.16915 1.4018 1.4018 1.65104 1.65104 1.91035 1.91035 2.17128 2.17128 2.42332 2.42332 2.65415 2.65415 2.8501 2.8501 2.99699 2.99699 3.08134 3.08134 3.0918 3.0918 3.02067 3.02067 2.86536 2.86536 2.62937 2.62937 2.32286 2.32286 1.96232 1.96232 1.56948 1.56948 1.16931 1.16931 0.787475 0.787475 0.447437 0.447437 0.167708 0.167708 -0.0402708 -0.0402708 -0.173256 -0.173256 -0.236125 -0.236125 -0.240592 -0.240592 -0.202988 -0.202988 -0.141513 -0.141513 -0.0734669 -0.0734669 -0.0129108 -0.0129108 0.0308778 0.0308778 0.0539858 0.0539858 0.0574716 0.0574716 0.0461549 0.0461549 0.0268794 0.0268794 0.0066276 0.0066276 -0.00911051 -0.00911051 -0.0173703 -0.0173703 -0.0179515 -0.0179515 -0.0128819 -0.0128819 -0.00534373 -0.00534373 0.00154984 0.00154984 0.00572384 0.00572384 0.00657586 0.00657586 0.00481698 0.00481698 0.00188401 0.00188401 -0.000775842 -0.000775842 -0.00224939 -0.00224939 -0.00235657 -0.00235657 -0.00150667 -0.00150667 -0.000356765 -0.000356765 0.000532268 0.000532268 0.00089488 0.00089488 0.000771552 0.000771552 0.000385194 0.000385194 -1.72293e-05 -1.72293e-05 -0.000274411 -0.000274411 -0.000340793 -0.000340793 -0.000256566 -0.000256566 -9.84401e-05 -9.84401e-05 5.79108e-05 5.79108e-05 0.000156528 0.000156528 0.000169518 0.000169518 0.000102567 0.000102567 -5.38632e-06 -5.38632e-06 -9.64992e-05 -9.64992e-05 -0.000122612 -0.000122612 -7.3744e-05 -7.3744e-05 1.41815e-05 1.41815e-05 8.18981e-05 8.18981e-05 8.68179e-05 8.68179e-05 3.21485e-05 3.21485e-05 -3.72854e-05 -3.72854e-05 -6.9986e-05 -6.9986e-05 -4.65214e-05 -4.65214e-05 8.24165e-06 8.24165e-06 4.81867e-05 4.81867e-05 4.41889e-05 4.41889e-05 5.65782e-06 5.65782e-06 -3.12282e-05 -3.12282e-05 -3.63454e-05 -3.63454e-05 -1.01305e-05 -1.01305e-05 2.04417e-05 2.04417e-05 2.83289e-05 2.83289e-05 1.0034e-05 1.0034e-05 -1.42685e-05 -1.42685e-05 -2.18098e-05 -2.18098e-05 -8.20052e-06 -8.20052e-06 1.08972e-05 1.08972e-05 1.68652e-05 1.68652e-05 5.96168e-06 5.96168e-06 -9.02923e-06 -9.02923e-06 -1.3115e-05 -1.3115e-05 -3.84083e-06 -3.84083e-06 7.88884e-06 7.88884e-06 1.01725e-05 1.01725e-05 2.00595e-06 2.00595e-06 -7.0533e-06 -7.0533e-06 -7.7635e-06 -7.7635e-06 -4.95379e-07 -4.95379e-07 6.3046e-06 6.3046e-06 5.72344e-06 5.72344e-06 -6.89891e-07 -6.89891e-07 -5.53769e-06 -5.53769e-06 -3.96699e-06 -3.96699e-06 1.55669e-06 1.55669e-06 4.71143e-06 4.71143e-06 2.45943e-06 2.45943e-06 -2.11467e-06 -2.11467e-06 -3.82384e-06 -3.82384e-06 -1.19564e-06 -1.19564e-06 2.37915e-06 2.37915e-06 2.89906e-06 2.89906e-06 1.85096e-07 1.85096e-07 -2.37531e-06 -2.37531e-06 -1.97917e-06 -1.97917e-06 5.59449e-07 5.59449e-07 2.14164e-06 2.14164e-06 1.1173e-06 1.1173e-06 -1.03119e-06 -1.03119e-06 -1.73161e-06 -1.73161e-06 -3.70265e-07 -3.70265e-07 1.23718e-06 1.23718e-06 1.21297e-06 1.21297e-06 -2.10011e-07 -2.10011e-07 -1.20441e-06 -1.20441e-06 -6.63477e-07 -6.63477e-07 5.86339e-07 5.86339e-07 9.82924e-07 9.82924e-07 1.62642e-07 1.62642e-07 -7.45868e-07 -7.45868e-07 -6.43904e-07 -6.43904e-07 2.20284e-07 2.20284e-07 7.06952e-07 7.06952e-07 2.71454e-07 2.71454e-07 -4.39947e-07 -4.39947e-07 -5.19915e-07 -5.19915e-07 5.19007e-08 5.19007e-08 4.86119e-07 4.86119e-07 2.59181e-07 2.59181e-07 -2.63028e-07 -2.63028e-07 -3.87622e-07 -3.87622e-07 -6.70631e-09 -6.70631e-09 3.33832e-07 3.33832e-07 2.05265e-07 2.05265e-07 -1.69467e-07 -1.69467e-07 -2.78159e-07 -2.78159e-07 -1.38046e-08 -1.38046e-08 2.34342e-07 2.34342e-07 1.45415e-07 1.45415e-07 -1.22057e-07 -1.22057e-07 -1.94712e-07 -1.94712e-07 -1.41268e-09 -1.41268e-09 1.68637e-07 1.68637e-07 9.26332e-08 9.26332e-08 -9.69378e-08 -9.69378e-08 -1.32052e-07 -1.32052e-07 1.47774e-08 1.47774e-08 1.22454e-07 1.22454e-07 5.03254e-08 5.03254e-08 -8.06627e-08 -8.06627e-08 -8.44883e-08 -8.44883e-08 2.77392e-08 2.77392e-08 8.70866e-08 8.70866e-08 1.86534e-08 1.86534e-08 -6.65054e-08 -6.65054e-08 -4.81601e-08 -4.81601e-08 3.47647e-08 3.47647e-08 5.8148e-08 5.8148e-08 -3.02812e-09 -3.02812e-09 -5.18158e-08 -5.18158e-08 -2.10495e-08 -2.10495e-08 3.54001e-08 3.54001e-08 3.40899e-08 3.40899e-08 -1.55855e-08 -1.55855e-08 -3.63789e-08 -3.63789e-08 -2.26974e-09 -2.26974e-09 3.0557e-08 3.0557e-08 1.49423e-08 1.49423e-08 -2.0209e-08 -2.0209e-08 -2.13509e-08 -2.13509e-08 8.74132e-09 8.74132e-09 2.20645e-08 2.20645e-08 1.29469e-09 1.29469e-09 -1.86177e-08 -1.86177e-08 -8.44482e-09 -8.44482e-09 1.2864e-08 1.2864e-08 1.2271e-08 1.2271e-08 -6.49752e-09 -6.49752e-09 -1.30887e-08 -1.30887e-08 7.80334e-10 7.80334e-10 1.16478e-08 1.16478e-08 3.54409e-09 3.54409e-09 -8.84566e-09 -8.84566e-09 -6.20653e-09 -6.20653e-09 5.51646e-09 5.51646e-09 7.29528e-09 7.29528e-09 -2.30989e-09 -2.30989e-09 -7.11755e-09 -7.11755e-09 -3.53143e-10 -3.53143e-10 6.07333e-09 6.07333e-09 2.26884e-09 2.26884e-09 -4.5599e-09 -4.5599e-09 -3.40687e-09 -3.40687e-09 2.9119e-09 2.9119e-09 3.85451e-09 3.85451e-09 -1.37359e-09 -1.37359e-09 -3.76302e-09 -3.76302e-09 9.52931e-11 9.52931e-11 3.30387e-09 3.30387e-09 8.54597e-10 8.54597e-10 -2.63836e-09 -2.63836e-09 -1.47016e-09 -1.47016e-09 1.89977e-09 1.89977e-09 1.78684e-09 1.78684e-09 -1.18623e-09 -1.18623e-09 -1.86242e-09 -1.86242e-09 5.60851e-10 5.60851e-10 1.76218e-09 1.76218e-09 -5.64929e-11 -5.64929e-11 -1.54853e-09 -1.54853e-09 -3.17389e-10 -3.17389e-10 1.27491e-09 1.27491e-09 5.6756e-10 5.6756e-10 -9.83007e-10 -9.83007e-10 -7.10542e-10 -7.10542e-10 7.02482e-10 7.02482e-10 7.67421e-10 7.67421e-10 -4.52108e-10 -4.52108e-10 -7.60072e-10 -7.60072e-10 2.41751e-10 2.41751e-10 7.08714e-10 7.08714e-10 -7.45617e-11 -7.45617e-11 -6.30554e-10 -6.30554e-10 -5.09408e-11 -5.09408e-11 5.39252e-10 5.39252e-10 1.39087e-10 1.39087e-10 -4.44946e-10 -4.44946e-10 -1.95661e-10 -1.95661e-10 3.54615e-10 3.54615e-10 2.26881e-10 2.26881e-10 -2.7261e-10 -2.7261e-10 -2.38725e-10 -2.38725e-10 2.0123e-10 2.0123e-10 2.36529e-10 2.36529e-10 -1.41267e-10 -1.41267e-10 -2.24795e-10 -2.24795e-10 9.24835e-11 9.24835e-11 2.07143e-10 2.07143e-10 -5.39949e-11 -5.39949e-11 -1.86352e-10 -1.86352e-10 2.45666e-11 2.45666e-11 1.64463e-10 1.64463e-10 -2.82666e-12 -2.82666e-12 -1.42894e-10 -1.42894e-10 -1.25901e-11 -1.25901e-11 1.22568e-10 1.22568e-10 2.29523e-11 2.29523e-11 -1.04026e-10 -1.04026e-10 -2.93829e-11 -2.93829e-11 8.75285e-11 8.75285e-11 3.28395e-11 3.28395e-11 -7.31394e-11 -7.31394e-11 -3.41135e-11 -3.41135e-11 6.0791e-11 6.0791e-11 3.38412e-11 3.38412e-11 -5.03356e-11 -5.03356e-11 -3.25217e-11 -3.25217e-11 4.1582e-11 4.1582e-11 3.05367e-11 3.05367e-11 -3.43222e-11 -3.43222e-11 -2.81707e-11 -2.81707e-11 2.83484e-11 2.83484e-11 2.56304e-11 2.56304e-11 -2.34645e-11 -2.34645e-11 -2.30607e-11 -2.30607e-11 1.9492e-11 1.9492e-11 2.05594e-11 2.05594e-11 -1.6273e-11 -1.6273e-11 -1.81889e-11 -1.81889e-11 1.36708e-11 1.36708e-11 1.59854e-11 1.59854e-11 -1.15693e-11 -1.15693e-11 -1.39665e-11 -1.39665e-11 9.87092e-12 9.87092e-12 1.21372e-11 1.21372e-11 -8.49508e-12 -8.49508e-12 -1.04937e-11 -1.04937e-11 7.37564e-12 7.37564e-12 9.02672e-12 9.02672e-12 -6.45893e-12 -6.45893e-12 -7.72426e-12 -7.72426e-12 5.70175e-12 5.70175e-12 6.57261e-12 6.57261e-12 -5.06957e-12 -5.06957e-12 -5.55779e-12 -5.55779e-12 4.53503e-12 4.53503e-12 4.66616e-12 4.66616e-12 -4.0766e-12 -4.0766e-12 -3.88486e-12 -3.88486e-12 3.67744e-12 3.67744e-12 3.20207e-12 3.20207e-12 -3.32454e-12 -3.32454e-12 -2.60706e-12 -2.60706e-12 3.00791e-12 3.00791e-12 2.09027e-12 2.09027e-12 -2.72e-12 -2.72e-12 -1.64319e-12 -1.64319e-12 2.45516e-12 2.45516e-12 1.25832e-12 1.25832e-12 -2.20927e-12 -2.20927e-12 -9.2901e-13 -9.2901e-13 1.97939e-12 1.97939e-12 6.4942e-13 6.4942e-13 -1.76351e-12 -1.76351e-12 -4.14354e-13 -4.14354e-13 1.56034e-12 1.56034e-12 2.19176e-13 2.19176e-13 -1.36912e-12 -1.36912e-12 -5.97126e-14 -5.97126e-14 1.1895e-12 1.1895e-12 -6.78301e-14 -6.78301e-14 -1.02138e-12 -1.02138e-12 1.66938e-13 1.66938e-13 8.64886e-13 8.64886e-13 -2.40846e-13 -2.40846e-13 -7.20216e-13 -7.20216e-13 2.92588e-13 2.92588e-13 5.87617e-13 5.87617e-13 -3.25025e-13 -3.25025e-13 -4.67312e-13 -4.67312e-13 3.40876e-13 3.40876e-13 3.59461e-13 3.59461e-13 -3.42724e-13 -3.42724e-13 -2.64123e-13 -2.64123e-13 3.33024e-13 3.33024e-13 1.81227e-13 1.81227e-13 -3.14102e-13 -3.14102e-13 -1.10557e-13 -1.10557e-13 2.88145e-13 2.88145e-13 5.17361e-14 5.17361e-14 -2.57184e-13 -2.57184e-13 -4.23071e-15 -4.23071e-15 2.23085e-13 2.23085e-13 -3.26494e-14 -3.26494e-14 -1.87531e-13 -1.87531e-13 5.97364e-14 5.97364e-14 1.52003e-13 1.52003e-13 -7.79864e-14 -7.79864e-14 -1.17768e-13 -1.17768e-13 8.8455e-14 8.8455e-14 8.58688e-14 8.58688e-14 -9.22685e-14 -9.22685e-14 -5.71204e-14 -5.71204e-14 9.05917e-14 9.05917e-14 3.21058e-14 3.21058e-14 -8.45948e-14 -8.45948e-14 -1.11845e-14 -1.11845e-14 7.5419e-14 7.5419e-14 -5.4967e-15 -5.4967e-15 -6.41442e-14 -6.41442e-14 1.79852e-14 1.79852e-14 5.17592e-14 5.17592e-14 -2.64992e-14 -2.64992e-14 -3.91363e-14 -3.91363e-14 3.13993e-14 3.13993e-14 2.70112e-14 2.70112e-14 -3.31564e-14 -3.31564e-14 -1.59695e-14 -1.59695e-14 3.23178e-14 3.23178e-14 6.43991e-15 6.43991e-15 -2.94721e-14 -2.94721e-14 1.30498e-15 1.30498e-15 2.52153e-14 2.52153e-14 -7.14146e-15 -7.14146e-15 -2.01196e-14 -2.01196e-14 1.10804e-14 1.10804e-14 1.47055e-14 1.47055e-14 -1.32478e-14 -1.32478e-14 -9.42042e-15 -9.42042e-15 1.38609e-14 1.38609e-14 4.62205e-15 4.62205e-15 -1.32018e-14 -1.32018e-14 -5.69738e-16 -5.69738e-16 1.159e-14 1.159e-14 -2.57788e-15 -2.57788e-15 -9.3553e-15 -9.3553e-15 4.75839e-15 4.75839e-15 6.81352e-15 6.81352e-15 -5.99532e-15 -5.99532e-15 -4.24577e-15 -4.24577e-15 6.38302e-15 6.38302e-15 1.88269e-15 1.88269e-15 -6.06838e-15 -6.06838e-15 1.05726e-16 1.05726e-16 5.23068e-15 5.23068e-15 -1.61423e-15 -1.61423e-15 -4.06153e-15 -4.06153e-15 2.60084e-15 2.60084e-15 2.7464e-15 2.7464e-15 -3.08018e-15 -3.08018e-15 -1.44901e-15 -1.44901e-15 3.11285e-15 3.11285e-15 2.9982e-16 2.9982e-16 -2.79208e-15 -2.79208e-15 6.10886e-16 6.10886e-16 2.22919e-15 2.22919e-15 -1.23518e-15 -1.23518e-15 -1.53931e-15 -1.53931e-15 1.56518e-15 1.56518e-15 8.28826e-16 8.28826e-16 -1.62697e-15 -1.62697e-15 -1.85451e-16 -1.85451e-16 1.47191e-15 1.47191e-15 -3.28173e-16 -3.28173e-16 -1.16647e-15 -1.16647e-15 6.77208e-16 6.77208e-16 7.81874e-16 7.81874e-16 -8.53772e-16 -8.53772e-16 -3.84812e-16 -3.84812e-16 8.73072e-16 8.73072e-16 3.01291e-17 3.01291e-17 -7.67369e-16 -7.67369e-16 2.43924e-16 2.43924e-16 5.78786e-16 5.78786e-16 -4.17585e-16 -4.17585e-16 -3.52007e-16 -3.52007e-16 4.88796e-16 4.88796e-16 1.27833e-16 1.27833e-16 -4.70207e-16 -4.70207e-16 6.16971e-17 6.16971e-17 3.84677e-16 3.84677e-16 -1.96166e-16 -1.96166e-16 -2.60107e-16 -2.60107e-16 2.67527e-16 2.67527e-16 1.24424e-16 1.24424e-16 -2.78939e-16 -2.78939e-16 -1.41755e-18 -1.41755e-18 2.42153e-16 2.42153e-16 -9.20938e-17 -9.20938e-17 -1.74045e-16 -1.74045e-16 1.47533e-16 1.47533e-16 9.2968e-17 9.2968e-17 -1.64331e-16 -1.64331e-16 -1.55157e-17 -1.55157e-17 1.48449e-16 1.48449e-16 -4.58591e-17 -4.58591e-17 -1.10109e-16 -1.10109e-16 8.41125e-17 8.41125e-17 6.12221e-17 6.12221e-17 -9.77407e-17 -9.77407e-17 -1.29929e-17 -1.29929e-17 8.99363e-17 8.99363e-17 -2.59073e-17 -2.59073e-17 -6.70794e-17 -6.70794e-17 5.03873e-17 5.03873e-17 3.69402e-17 3.69402e-17 -5.91422e-17 -5.91422e-17 -6.96473e-18 -6.96473e-18 5.41268e-17 5.41268e-17 -1.70568e-17 -1.70568e-17 -3.95204e-17 -3.95204e-17 3.17579e-17 3.17579e-17 2.04653e-17 2.04653e-17 -3.63522e-17 -3.63522e-17 -1.8595e-18 -1.8595e-18 3.2257e-17 3.2257e-17 -1.25693e-17 -1.25693e-17 -2.23516e-17 -2.23516e-17 2.07772e-17 2.07772e-17 1.00841e-17 1.00841e-17 -2.2475e-17 -2.2475e-17 1.36365e-18 1.36365e-18 1.88218e-17 1.88218e-17 -9.69296e-18 -9.69296e-18 -1.18741e-17 -1.18741e-17 1.37959e-17 1.37959e-17 3.95262e-18 3.95262e-18 -1.37458e-17 -1.37458e-17 2.92381e-18 2.92381e-18 1.05316e-17 1.05316e-17 -7.42457e-18 -7.42457e-18 -5.64121e-18 -5.64121e-18 9.06256e-18 9.06256e-18 6.15897e-19 6.15897e-19 -8.12666e-18 -8.12666e-18 3.3179e-18 3.3179e-18 5.44878e-18 5.44878e-18 -5.46966e-18 -5.46966e-18 -2.09081e-18 -2.09081e-18 5.73466e-18 5.73466e-18 -9.59677e-19 -9.59677e-19 -4.49366e-18 -4.49366e-18 3.01408e-18 3.01408e-18 2.41514e-18 2.41514e-18 -3.78853e-18 -3.78853e-18 -2.27009e-19 -2.27009e-19 3.38779e-18 3.38779e-18 -1.47984e-18 -1.47984e-18 -2.19468e-18 -2.19468e-18 2.37303e-18 2.37303e-18 7.11422e-19 7.11422e-19 -2.40889e-18 -2.40889e-18 5.97347e-19 5.97347e-19 1.78136e-18 1.78136e-18 -1.41931e-18 -1.41931e-18 -8.18758e-19 -8.18758e-19 1.6451e-18 1.6451e-18 -1.34055e-19 -1.34055e-19 -1.35382e-18 -1.35382e-18 8.13521e-19 8.13521e-19 7.50239e-19 7.50239e-19 -1.09266e-18 -1.09266e-18 -8.02755e-20 -8.02755e-20 9.86886e-19 9.86886e-19 -4.47403e-19 -4.47403e-19 -6.18462e-19 -6.18462e-19 7.129e-19 7.129e-19 1.5797e-19 1.5797e-19 -7.00356e-19 -7.00356e-19 2.35992e-19 2.35992e-19 4.7978e-19 4.7978e-19 -4.60962e-19 -4.60962e-19 -1.6742e-19 -1.6742e-19 4.88868e-19 4.88868e-19 -1.19335e-19 -1.19335e-19 -3.5815e-19 -3.5815e-19 2.97898e-19 2.97898e-19 1.47345e-19 1.47345e-19 -3.38228e-19 -3.38228e-19 5.80726e-20 5.80726e-20 2.60586e-19 2.60586e-19 -1.93997e-19 -1.93997e-19 -1.1803e-19 -1.1803e-19 2.33285e-19 2.33285e-19 -2.77567e-20 -2.77567e-20 -1.86266e-19 -1.86266e-19 1.28271e-19 1.28271e-19 8.90837e-20 8.90837e-20 -1.61082e-19 -1.61082e-19 1.38972e-20 1.38972e-20 1.31436e-19 1.31436e-19 -8.66355e-20 -8.66355e-20 -6.43414e-20 -6.43414e-20 1.11648e-19 1.11648e-19 -8.27183e-21 -8.27183e-21 -9.17952e-20 -9.17952e-20 5.99849e-20 5.99849e-20 4.47551e-20 4.47551e-20 -7.77633e-20 -7.77633e-20 6.42175e-21 6.42175e-21 6.34982e-20 6.34982e-20 -4.2589e-20 -4.2589e-20 -2.99908e-20 -2.99908e-20 5.44036e-20 5.44036e-20 -6.05485e-21 -6.05485e-21 -4.34612e-20 -4.34612e-20 3.09149e-20 3.09149e-20 1.92539e-20 1.92539e-20 -3.81569e-20 -3.81569e-20 6.07698e-21 6.07698e-21 2.93518e-20 2.93518e-20 -2.28161e-20 -2.28161e-20 -1.168e-20 -1.168e-20 2.67416e-20 2.67416e-20 -6.02752e-21 -6.02752e-21 -1.94658e-20 -1.94658e-20 1.70004e-20 1.70004e-20 6.49612e-21 6.49612e-21 -1