# vtk DataFile Version 3.0
#This file was generated by the deal.II library on 2020/8/11 at 22:16:24
ASCII
DATASET UNSTRUCTURED_GRID

POINTS 4096 double
0.5 0 0
0.743896 0 0
0.743896 0 0
0.987793 0 0
0.987793 0 0
1.23169 0 0
1.23169 0 0
1.47559 0 0
1.47559 0 0
1.71948 0 0
1.71948 0 0
1.96338 0 0
1.96338 0 0
2.20728 0 0
2.20728 0 0
2.45117 0 0
2.45117 0 0
2.69507 0 0
2.69507 0 0
2.93896 0 0
2.93896 0 0
3.18286 0 0
3.18286 0 0
3.42676 0 0
3.42676 0 0
3.67065 0 0
3.67065 0 0
3.91455 0 0
3.91455 0 0
4.15845 0 0
4.15845 0 0
4.40234 0 0
4.40234 0 0
4.64624 0 0
4.64624 0 0
4.89014 0 0
4.89014 0 0
5.13403 0 0
5.13403 0 0
5.37793 0 0
5.37793 0 0
5.62183 0 0
5.62183 0 0
5.86572 0 0
5.86572 0 0
6.10962 0 0
6.10962 0 0
6.35352 0 0
6.35352 0 0
6.59741 0 0
6.59741 0 0
6.84131 0 0
6.84131 0 0
7.08521 0 0
7.08521 0 0
7.3291 0 0
7.3291 0 0
7.573 0 0
7.573 0 0
7.81689 0 0
7.81689 0 0
8.06079 0 0
8.06079 0 0
8.30469 0 0
8.30469 0 0
8.54858 0 0
8.54858 0 0
8.79248 0 0
8.79248 0 0
9.03638 0 0
9.03638 0 0
9.28027 0 0
9.28027 0 0
9.52417 0 0
9.52417 0 0
9.76807 0 0
9.76807 0 0
10.012 0 0
10.012 0 0
10.2559 0 0
10.2559 0 0
10.4998 0 0
10.4998 0 0
10.7437 0 0
10.7437 0 0
10.9875 0 0
10.9875 0 0
11.2314 0 0
11.2314 0 0
11.4753 0 0
11.4753 0 0
11.7192 0 0
11.7192 0 0
11.9631 0 0
11.9631 0 0
12.207 0 0
12.207 0 0
12.4509 0 0
12.4509 0 0
12.6948 0 0
12.6948 0 0
12.9387 0 0
12.9387 0 0
13.1826 0 0
13.1826 0 0
13.4265 0 0
13.4265 0 0
13.6704 0 0
13.6704 0 0
13.9143 0 0
13.9143 0 0
14.1582 0 0
14.1582 0 0
14.4021 0 0
14.4021 0 0
14.646 0 0
14.646 0 0
14.8899 0 0
14.8899 0 0
15.1338 0 0
15.1338 0 0
15.3777 0 0
15.3777 0 0
15.6216 0 0
15.6216 0 0
15.8655 0 0
15.8655 0 0
16.1094 0 0
16.1094 0 0
16.3533 0 0
16.3533 0 0
16.5972 0 0
16.5972 0 0
16.8411 0 0
16.8411 0 0
17.085 0 0
17.085 0 0
17.3289 0 0
17.3289 0 0
17.5728 0 0
17.5728 0 0
17.8167 0 0
17.8167 0 0
18.0605 0 0
18.0605 0 0
18.3044 0 0
18.3044 0 0
18.5483 0 0
18.5483 0 0
18.7922 0 0
18.7922 0 0
19.0361 0 0
19.0361 0 0
19.28 0 0
19.28 0 0
19.5239 0 0
19.5239 0 0
19.7678 0 0
19.7678 0 0
20.0117 0 0
20.0117 0 0
20.2556 0 0
20.2556 0 0
20.4995 0 0
20.4995 0 0
20.7434 0 0
20.7434 0 0
20.9873 0 0
20.9873 0 0
21.2312 0 0
21.2312 0 0
21.4751 0 0
21.4751 0 0
21.719 0 0
21.719 0 0
21.9629 0 0
21.9629 0 0
22.2068 0 0
22.2068 0 0
22.4507 0 0
22.4507 0 0
22.6946 0 0
22.6946 0 0
22.9385 0 0
22.9385 0 0
23.1824 0 0
23.1824 0 0
23.4263 0 0
23.4263 0 0
23.6702 0 0
23.6702 0 0
23.9141 0 0
23.9141 0 0
24.158 0 0
24.158 0 0
24.4019 0 0
24.4019 0 0
24.6458 0 0
24.6458 0 0
24.8896 0 0
24.8896 0 0
25.1335 0 0
25.1335 0 0
25.3774 0 0
25.3774 0 0
25.6213 0 0
25.6213 0 0
25.8652 0 0
25.8652 0 0
26.1091 0 0
26.1091 0 0
26.353 0 0
26.353 0 0
26.5969 0 0
26.5969 0 0
26.8408 0 0
26.8408 0 0
27.0847 0 0
27.0847 0 0
27.3286 0 0
27.3286 0 0
27.5725 0 0
27.5725 0 0
27.8164 0 0
27.8164 0 0
28.0603 0 0
28.0603 0 0
28.3042 0 0
28.3042 0 0
28.5481 0 0
28.5481 0 0
28.792 0 0
28.792 0 0
29.0359 0 0
29.0359 0 0
29.2798 0 0
29.2798 0 0
29.5237 0 0
29.5237 0 0
29.7676 0 0
29.7676 0 0
30.0115 0 0
30.0115 0 0
30.2554 0 0
30.2554 0 0
30.4993 0 0
30.4993 0 0
30.7432 0 0
30.7432 0 0
30.9871 0 0
30.9871 0 0
31.231 0 0
31.231 0 0
31.4749 0 0
31.4749 0 0
31.7188 0 0
31.7188 0 0
31.9626 0 0
31.9626 0 0
32.2065 0 0
32.2065 0 0
32.4504 0 0
32.4504 0 0
32.6943 0 0
32.6943 0 0
32.9382 0 0
32.9382 0 0
33.1821 0 0
33.1821 0 0
33.426 0 0
33.426 0 0
33.6699 0 0
33.6699 0 0
33.9138 0 0
33.9138 0 0
34.1577 0 0
34.1577 0 0
34.4016 0 0
34.4016 0 0
34.6455 0 0
34.6455 0 0
34.8894 0 0
34.8894 0 0
35.1333 0 0
35.1333 0 0
35.3772 0 0
35.3772 0 0
35.6211 0 0
35.6211 0 0
35.865 0 0
35.865 0 0
36.1089 0 0
36.1089 0 0
36.3528 0 0
36.3528 0 0
36.5967 0 0
36.5967 0 0
36.8406 0 0
36.8406 0 0
37.0845 0 0
37.0845 0 0
37.3284 0 0
37.3284 0 0
37.5723 0 0
37.5723 0 0
37.8162 0 0
37.8162 0 0
38.0601 0 0
38.0601 0 0
38.304 0 0
38.304 0 0
38.5479 0 0
38.5479 0 0
38.7917 0 0
38.7917 0 0
39.0356 0 0
39.0356 0 0
39.2795 0 0
39.2795 0 0
39.5234 0 0
39.5234 0 0
39.7673 0 0
39.7673 0 0
40.0112 0 0
40.0112 0 0
40.2551 0 0
40.2551 0 0
40.499 0 0
40.499 0 0
40.7429 0 0
40.7429 0 0
40.9868 0 0
40.9868 0 0
41.2307 0 0
41.2307 0 0
41.4746 0 0
41.4746 0 0
41.7185 0 0
41.7185 0 0
41.9624 0 0
41.9624 0 0
42.2063 0 0
42.2063 0 0
42.4502 0 0
42.4502 0 0
42.6941 0 0
42.6941 0 0
42.938 0 0
42.938 0 0
43.1819 0 0
43.1819 0 0
43.4258 0 0
43.4258 0 0
43.6697 0 0
43.6697 0 0
43.9136 0 0
43.9136 0 0
44.1575 0 0
44.1575 0 0
44.4014 0 0
44.4014 0 0
44.6453 0 0
44.6453 0 0
44.8892 0 0
44.8892 0 0
45.1331 0 0
45.1331 0 0
45.377 0 0
45.377 0 0
45.6208 0 0
45.6208 0 0
45.8647 0 0
45.8647 0 0
46.1086 0 0
46.1086 0 0
46.3525 0 0
46.3525 0 0
46.5964 0 0
46.5964 0 0
46.8403 0 0
46.8403 0 0
47.0842 0 0
47.0842 0 0
47.3281 0 0
47.3281 0 0
47.572 0 0
47.572 0 0
47.8159 0 0
47.8159 0 0
48.0598 0 0
48.0598 0 0
48.3037 0 0
48.3037 0 0
48.5476 0 0
48.5476 0 0
48.7915 0 0
48.7915 0 0
49.0354 0 0
49.0354 0 0
49.2793 0 0
49.2793 0 0
49.5232 0 0
49.5232 0 0
49.7671 0 0
49.7671 0 0
50.011 0 0
50.011 0 0
50.2549 0 0
50.2549 0 0
50.4988 0 0
50.4988 0 0
50.7427 0 0
50.7427 0 0
50.9866 0 0
50.9866 0 0
51.2305 0 0
51.2305 0 0
51.4744 0 0
51.4744 0 0
51.7183 0 0
51.7183 0 0
51.9622 0 0
51.9622 0 0
52.2061 0 0
52.2061 0 0
52.45 0 0
52.45 0 0
52.6938 0 0
52.6938 0 0
52.9377 0 0
52.9377 0 0
53.1816 0 0
53.1816 0 0
53.4255 0 0
53.4255 0 0
53.6694 0 0
53.6694 0 0
53.9133 0 0
53.9133 0 0
54.1572 0 0
54.1572 0 0
54.4011 0 0
54.4011 0 0
54.645 0 0
54.645 0 0
54.8889 0 0
54.8889 0 0
55.1328 0 0
55.1328 0 0
55.3767 0 0
55.3767 0 0
55.6206 0 0
55.6206 0 0
55.8645 0 0
55.8645 0 0
56.1084 0 0
56.1084 0 0
56.3523 0 0
56.3523 0 0
56.5962 0 0
56.5962 0 0
56.8401 0 0
56.8401 0 0
57.084 0 0
57.084 0 0
57.3279 0 0
57.3279 0 0
57.5718 0 0
57.5718 0 0
57.8157 0 0
57.8157 0 0
58.0596 0 0
58.0596 0 0
58.3035 0 0
58.3035 0 0
58.5474 0 0
58.5474 0 0
58.7913 0 0
58.7913 0 0
59.0352 0 0
59.0352 0 0
59.2791 0 0
59.2791 0 0
59.5229 0 0
59.5229 0 0
59.7668 0 0
59.7668 0 0
60.0107 0 0
60.0107 0 0
60.2546 0 0
60.2546 0 0
60.4985 0 0
60.4985 0 0
60.7424 0 0
60.7424 0 0
60.9863 0 0
60.9863 0 0
61.2302 0 0
61.2302 0 0
61.4741 0 0
61.4741 0 0
61.718 0 0
61.718 0 0
61.9619 0 0
61.9619 0 0
62.2058 0 0
62.2058 0 0
62.4497 0 0
62.4497 0 0
62.6936 0 0
62.6936 0 0
62.9375 0 0
62.9375 0 0
63.1814 0 0
63.1814 0 0
63.4253 0 0
63.4253 0 0
63.6692 0 0
63.6692 0 0
63.9131 0 0
63.9131 0 0
64.157 0 0
64.157 0 0
64.4009 0 0
64.4009 0 0
64.6448 0 0
64.6448 0 0
64.8887 0 0
64.8887 0 0
65.1326 0 0
65.1326 0 0
65.3765 0 0
65.3765 0 0
65.6204 0 0
65.6204 0 0
65.8643 0 0
65.8643 0 0
66.1082 0 0
66.1082 0 0
66.3521 0 0
66.3521 0 0
66.5959 0 0
66.5959 0 0
66.8398 0 0
66.8398 0 0
67.0837 0 0
67.0837 0 0
67.3276 0 0
67.3276 0 0
67.5715 0 0
67.5715 0 0
67.8154 0 0
67.8154 0 0
68.0593 0 0
68.0593 0 0
68.3032 0 0
68.3032 0 0
68.5471 0 0
68.5471 0 0
68.791 0 0
68.791 0 0
69.0349 0 0
69.0349 0 0
69.2788 0 0
69.2788 0 0
69.5227 0 0
69.5227 0 0
69.7666 0 0
69.7666 0 0
70.0105 0 0
70.0105 0 0
70.2544 0 0
70.2544 0 0
70.4983 0 0
70.4983 0 0
70.7422 0 0
70.7422 0 0
70.9861 0 0
70.9861 0 0
71.23 0 0
71.23 0 0
71.4739 0 0
71.4739 0 0
71.7178 0 0
71.7178 0 0
71.9617 0 0
71.9617 0 0
72.2056 0 0
72.2056 0 0
72.4495 0 0
72.4495 0 0
72.6934 0 0
72.6934 0 0
72.9373 0 0
72.9373 0 0
73.1812 0 0
73.1812 0 0
73.425 0 0
73.425 0 0
73.6689 0 0
73.6689 0 0
73.9128 0 0
73.9128 0 0
74.1567 0 0
74.1567 0 0
74.4006 0 0
74.4006 0 0
74.6445 0 0
74.6445 0 0
74.8884 0 0
74.8884 0 0
75.1323 0 0
75.1323 0 0
75.3762 0 0
75.3762 0 0
75.6201 0 0
75.6201 0 0
75.864 0 0
75.864 0 0
76.1079 0 0
76.1079 0 0
76.3518 0 0
76.3518 0 0
76.5957 0 0
76.5957 0 0
76.8396 0 0
76.8396 0 0
77.0835 0 0
77.0835 0 0
77.3274 0 0
77.3274 0 0
77.5713 0 0
77.5713 0 0
77.8152 0 0
77.8152 0 0
78.0591 0 0
78.0591 0 0
78.303 0 0
78.303 0 0
78.5469 0 0
78.5469 0 0
78.7908 0 0
78.7908 0 0
79.0347 0 0
79.0347 0 0
79.2786 0 0
79.2786 0 0
79.5225 0 0
79.5225 0 0
79.7664 0 0
79.7664 0 0
80.0103 0 0
80.0103 0 0
80.2542 0 0
80.2542 0 0
80.498 0 0
80.498 0 0
80.7419 0 0
80.7419 0 0
80.9858 0 0
80.9858 0 0
81.2297 0 0
81.2297 0 0
81.4736 0 0
81.4736 0 0
81.7175 0 0
81.7175 0 0
81.9614 0 0
81.9614 0 0
82.2053 0 0
82.2053 0 0
82.4492 0 0
82.4492 0 0
82.6931 0 0
82.6931 0 0
82.937 0 0
82.937 0 0
83.1809 0 0
83.1809 0 0
83.4248 0 0
83.4248 0 0
83.6687 0 0
83.6687 0 0
83.9126 0 0
83.9126 0 0
84.1565 0 0
84.1565 0 0
84.4004 0 0
84.4004 0 0
84.6443 0 0
84.6443 0 0
84.8882 0 0
84.8882 0 0
85.1321 0 0
85.1321 0 0
85.376 0 0
85.376 0 0
85.6199 0 0
85.6199 0 0
85.8638 0 0
85.8638 0 0
86.1077 0 0
86.1077 0 0
86.3516 0 0
86.3516 0 0
86.5955 0 0
86.5955 0 0
86.8394 0 0
86.8394 0 0
87.0833 0 0
87.0833 0 0
87.3271 0 0
87.3271 0 0
87.571 0 0
87.571 0 0
87.8149 0 0
87.8149 0 0
88.0588 0 0
88.0588 0 0
88.3027 0 0
88.3027 0 0
88.5466 0 0
88.5466 0 0
88.7905 0 0
88.7905 0 0
89.0344 0 0
89.0344 0 0
89.2783 0 0
89.2783 0 0
89.5222 0 0
89.5222 0 0
89.7661 0 0
89.7661 0 0
90.01 0 0
90.01 0 0
90.2539 0 0
90.2539 0 0
90.4978 0 0
90.4978 0 0
90.7417 0 0
90.7417 0 0
90.9856 0 0
90.9856 0 0
91.2295 0 0
91.2295 0 0
91.4734 0 0
91.4734 0 0
91.7173 0 0
91.7173 0 0
91.9612 0 0
91.9612 0 0
92.2051 0 0
92.2051 0 0
92.449 0 0
92.449 0 0
92.6929 0 0
92.6929 0 0
92.9368 0 0
92.9368 0 0
93.1807 0 0
93.1807 0 0
93.4246 0 0
93.4246 0 0
93.6685 0 0
93.6685 0 0
93.9124 0 0
93.9124 0 0
94.1562 0 0
94.1562 0 0
94.4001 0 0
94.4001 0 0
94.644 0 0
94.644 0 0
94.8879 0 0
94.8879 0 0
95.1318 0 0
95.1318 0 0
95.3757 0 0
95.3757 0 0
95.6196 0 0
95.6196 0 0
95.8635 0 0
95.8635 0 0
96.1074 0 0
96.1074 0 0
96.3513 0 0
96.3513 0 0
96.5952 0 0
96.5952 0 0
96.8391 0 0
96.8391 0 0
97.083 0 0
97.083 0 0
97.3269 0 0
97.3269 0 0
97.5708 0 0
97.5708 0 0
97.8147 0 0
97.8147 0 0
98.0586 0 0
98.0586 0 0
98.3025 0 0
98.3025 0 0
98.5464 0 0
98.5464 0 0
98.7903 0 0
98.7903 0 0
99.0342 0 0
99.0342 0 0
99.2781 0 0
99.2781 0 0
99.522 0 0
99.522 0 0
99.7659 0 0
99.7659 0 0
100.01 0 0
100.01 0 0
100.254 0 0
100.254 0 0
100.498 0 0
100.498 0 0
100.741 0 0
100.741 0 0
100.985 0 0
100.985 0 0
101.229 0 0
101.229 0 0
101.473 0 0
[...]
POINT_DATA 4096
SCALARS solution_0 double 1
LOOKUP_TABLE default
0.0229938 -5.7833 -5.7833 -1.48471 -1.48471 -0.644868 -0.644868 -0.172186 -0.172186 0.029974 0.029974 0.186498 0.186498 0.232409 0.232409 0.207564 0.207564 0.0615186 0.0615186 -0.0468876 -0.0468876 -0.124415 -0.124415 -0.0254436 -0.0254436 0.122593 0.122593 0.20834 0.20834 0.147783 0.147783 0.265914 0.265914 0.48441 0.48441 0.941773 0.941773 1.30993 1.30993 1.897 1.897 2.75222 2.75222 3.81644 3.81644 4.89014 4.89014 6.00461 6.00461 7.17763 7.17763 8.02939 8.02939 8.53223 8.53223 8.6071 8.6071 8.31041 8.31041 7.47432 7.47432 6.39905 6.39905 5.19179 5.19179 3.95756 3.95756 2.79492 2.79492 1.92196 1.92196 1.20358 1.20358 0.699728 0.699728 0.395619 0.395619 0.218921 0.218921 0.0772258 0.0772258 0.0580022 0.0580022 0.0167634 0.0167634 0.00445439 0.00445439 0.000287198 0.000287198 0.011029 0.011029 -0.0117771 -0.0117771 0.00558266 0.00558266 0.00466798 0.00466798 -0.011012 -0.011012 0.0096362 0.0096362 -0.00231329 -0.00231329 -0.00552264 -0.00552264 0.00906125 0.00906125 -0.00704683 -0.00704683 0.00179491 0.00179491 0.00303535 0.00303535 -0.00494883 -0.00494883 0.00377777 0.00377777 -0.00114522 -0.00114522 -0.000987918 -0.000987918 0.00157007 0.00157007 -0.00081523 -0.00081523 -0.000293284 -0.000293284 0.000818891 0.000818891 -0.000436058 -0.000436058 -0.000521871 -0.000521871 0.00142153 0.00142153 -0.00177852 -0.00177852 0.00151175 0.00151175 -0.000903952 -0.000903952 0.000361461 0.000361461 -0.00015669 -0.00015669 0.000301974 0.000301974 -0.00059586 -0.00059586 0.0007792 0.0007792 -0.000693132 -0.000693132 0.000353639 0.000353639 8.06114e-05 8.06114e-05 -0.000410276 -0.000410276 0.000502243 0.000502243 -0.000346965 -0.000346965 4.68671e-05 4.68671e-05 0.000246482 0.000246482 -0.000407861 -0.000407861 0.000389528 0.000389528 -0.000229262 -0.000229262 1.95733e-05 1.95733e-05 0.000141315 0.000141315 -0.00019219 -0.00019219 0.000128273 0.000128273 6.41553e-06 6.41553e-06 -0.000145494 -0.000145494 0.000231039 0.000231039 -0.000235466 -0.000235466 0.000167388 0.000167388 -6.21545e-05 -6.21545e-05 -3.63389e-05 -3.63389e-05 9.38873e-05 9.38873e-05 -9.72898e-05 -9.72898e-05 5.57637e-05 5.57637e-05 6.20954e-06 6.20954e-06 -6.03666e-05 -6.03666e-05 8.54904e-05 8.54904e-05 -7.38191e-05 -7.38191e-05 3.15972e-05 3.15972e-05 2.53239e-05 2.53239e-05 -7.83833e-05 -7.83833e-05 0.000112888 0.000112888 -0.000122125 -0.000122125 0.000108123 0.000108123 -7.9462e-05 -7.9462e-05 4.74333e-05 4.74333e-05 -2.2083e-05 -2.2083e-05 9.42735e-06 9.42735e-06 -1.04581e-05 -1.04581e-05 2.18774e-05 2.18774e-05 -3.79723e-05 -3.79723e-05 5.28154e-05 5.28154e-05 -6.20579e-05 -6.20579e-05 6.38658e-05 6.38658e-05 -5.89072e-05 -5.89072e-05 4.96061e-05 4.96061e-05 -3.90462e-05 -3.90462e-05 2.99264e-05 2.99264e-05 -2.38633e-05 -2.38633e-05 2.11659e-05 2.11659e-05 -2.10427e-05 -2.10427e-05 2.20841e-05 2.20841e-05 -2.28184e-05 -2.28184e-05 2.21653e-05 2.21653e-05 -1.96804e-05 -1.96804e-05 1.55663e-05 1.55663e-05 -1.0499e-05 -1.0499e-05 5.35767e-06 5.35767e-06 -9.52724e-07 -9.52724e-07 -2.17226e-06 -2.17226e-06 3.82876e-06 3.82876e-06 -4.16192e-06 -4.16192e-06 3.5495e-06 3.5495e-06 -2.46537e-06 -2.46537e-06 1.35038e-06 1.35038e-06 -5.21546e-07 -5.21546e-07 1.33052e-07 1.33052e-07 -1.85939e-07 -1.85939e-07 5.71851e-07 5.71851e-07 -1.13114e-06 -1.13114e-06 1.70721e-06 1.70721e-06 -2.18458e-06 -2.18458e-06 2.50573e-06 2.50573e-06 -2.66847e-06 -2.66847e-06 2.70998e-06 2.70998e-06 -2.6854e-06 -2.6854e-06 2.64798e-06 2.64798e-06 -2.63536e-06 -2.63536e-06 2.66359e-06 2.66359e-06 -2.7281e-06 -2.7281e-06 2.80927e-06 2.80927e-06 -2.87976e-06 -2.87976e-06 2.91141e-06 2.91141e-06 -2.88024e-06 -2.88024e-06 2.7693e-06 2.7693e-06 -2.56976e-06 -2.56976e-06 2.28093e-06 2.28093e-06 -1.90996e-06 -1.90996e-06 1.4715e-06 1.4715e-06 -9.87298e-07 -9.87298e-07 4.85335e-07 4.85335e-07 1.73722e-09 1.73722e-09 -4.39254e-07 -4.39254e-07 7.94136e-07 7.94136e-07 -1.03903e-06 -1.03903e-06 1.15626e-06 1.15626e-06 -1.14091e-06 -1.14091e-06 1.00216e-06 1.00216e-06 -7.62643e-07 -7.62643e-07 4.55734e-07 4.55734e-07 -1.21129e-07 -1.21129e-07 -2.00502e-07 -2.00502e-07 4.72932e-07 4.72932e-07 -6.68958e-07 -6.68958e-07 7.73441e-07 7.73441e-07 -7.84383e-07 -7.84383e-07 7.12005e-07 7.12005e-07 -5.76107e-07 -5.76107e-07 4.02286e-07 4.02286e-07 -2.17693e-07 -2.17693e-07 4.70532e-08 4.70532e-08 9.0474e-08 9.0474e-08 -1.83209e-07 -1.83209e-07 2.27499e-07 2.27499e-07 -2.26994e-07 -2.26994e-07 1.90956e-07 1.90956e-07 -1.3198e-07 -1.3198e-07 6.3599e-08 6.3599e-08 1.87129e-09 1.87129e-09 -5.4927e-08 -5.4927e-08 8.97716e-08 8.97716e-08 -1.04487e-07 -1.04487e-07 1.0058e-07 1.0058e-07 -8.2093e-08 -8.2093e-08 5.44837e-08 5.44837e-08 -2.35101e-08 -2.35101e-08 -5.71793e-09 -5.71793e-09 2.93966e-08 2.93966e-08 -4.53489e-08 -4.53489e-08 5.3023e-08 5.3023e-08 -5.32338e-08 -5.32338e-08 4.77402e-08 4.77402e-08 -3.87599e-08 -3.87599e-08 2.85148e-08 2.85148e-08 -1.88725e-08 -1.88725e-08 1.11258e-08 1.11258e-08 -5.91468e-09 -5.91468e-09 3.27599e-09 3.27599e-09 -2.78376e-09 -2.78376e-09 3.73773e-09 3.73773e-09 -5.3575e-09 -5.3575e-09 6.94724e-09 6.94724e-09 -8.00881e-09 -8.00881e-09 8.29393e-09 8.29393e-09 -7.79877e-09 -7.79877e-09 6.71365e-09 6.71365e-09 -5.34586e-09 -5.34586e-09 4.03472e-09 4.03472e-09 -3.07584e-09 -3.07584e-09 2.6666e-09 2.6666e-09 -2.87915e-09 -2.87915e-09 3.66087e-09 3.66087e-09 -4.85789e-09 -4.85789e-09 6.25375e-09 6.25375e-09 -7.61395e-09 -7.61395e-09 8.7279e-09 8.7279e-09 -9.44137e-09 -9.44137e-09 9.67534e-09 9.67534e-09 -9.43009e-09 -9.43009e-09 8.77593e-09 8.77593e-09 -7.83394e-09 -7.83394e-09 6.75134e-09 6.75134e-09 -5.67597e-09 -5.67597e-09 4.73415e-09 4.73415e-09 -4.01484e-09 -4.01484e-09 3.56156e-09 3.56156e-09 -3.37222e-09 -3.37222e-09 3.40578e-09 3.40578e-09 -3.59359e-09 -3.59359e-09 3.85331e-09 3.85331e-09 -4.10263e-09 -4.10263e-09 4.27117e-09 4.27117e-09 -4.30882e-09 -4.30882e-09 4.19005e-09 4.19005e-09 -3.91406e-09 -3.91406e-09 3.50153e-09 3.50153e-09 -2.98876e-09 -2.98876e-09 2.42063e-09 2.42063e-09 -1.84344e-09 -1.84344e-09 1.29865e-09 1.29865e-09 -8.18326e-10 -8.18326e-10 4.22498e-10 4.22498e-10 -1.18659e-10 -1.18659e-10 -9.70192e-11 -9.70192e-11 2.37137e-10 2.37137e-10 -3.19775e-10 -3.19775e-10 3.65035e-10 3.65035e-10 -3.91923e-10 -3.91923e-10 4.15937e-10 4.15937e-10 -4.47572e-10 -4.47572e-10 4.91806e-10 4.91806e-10 -5.48452e-10 -5.48452e-10 6.13191e-10 6.13191e-10 -6.79037e-10 -6.79037e-10 7.37933e-10 7.37933e-10 -7.82266e-10 -7.82266e-10 8.06077e-10 8.06077e-10 -8.05864e-10 -8.05864e-10 7.80922e-10 7.80922e-10 -7.33249e-10 -7.33249e-10 6.67091e-10 6.67091e-10 -5.88247e-10 -5.88247e-10 5.03255e-10 5.03255e-10 -4.18582e-10 -4.18582e-10 3.3993e-10 3.3993e-10 -2.71717e-10 -2.71717e-10 2.16787e-10 2.16787e-10 -1.76328e-10 -1.76328e-10 1.50005e-10 1.50005e-10 -1.36236e-10 -1.36236e-10 1.32562e-10 1.32562e-10 -1.36059e-10 -1.36059e-10 1.43727e-10 1.43727e-10 -1.52815e-10 -1.52815e-10 1.61064e-10 1.61064e-10 -1.66844e-10 -1.66844e-10 1.69189e-10 1.69189e-10 -1.67755e-10 -1.67755e-10 1.62708e-10 1.62708e-10 -1.54579e-10 -1.54579e-10 1.44106e-10 1.44106e-10 -1.32086e-10 -1.32086e-10 1.19256e-10 1.19256e-10 -1.06212e-10 -1.06212e-10 9.33615e-11 9.33615e-11 -8.09275e-11 -8.09275e-11 6.89692e-11 6.89692e-11 -5.74319e-11 -5.74319e-11 4.62031e-11 4.62031e-11 -3.51689e-11 -3.51689e-11 2.42603e-11 2.42603e-11 -1.34847e-11 -1.34847e-11 2.93901e-12 2.93901e-12 7.19471e-12 7.19471e-12 -1.66692e-11 -1.66692e-11 2.52027e-11 2.52027e-11 -3.25145e-11 -3.25145e-11 3.83615e-11 3.83615e-11 -4.25688e-11 -4.25688e-11 4.50525e-11 4.50525e-11 -4.58308e-11 -4.58308e-11 4.50238e-11 4.50238e-11 -4.28428e-11 -4.28428e-11 3.95696e-11 3.95696e-11 -3.55312e-11 -3.55312e-11 3.107e-11 3.107e-11 -2.65158e-11 -2.65158e-11 2.21606e-11 2.21606e-11 -1.82383e-11 -1.82383e-11 1.49125e-11 1.49125e-11 -1.22714e-11 -1.22714e-11 1.03294e-11 1.03294e-11 -9.03625e-12 -9.03625e-12 8.2903e-12 8.2903e-12 -7.95487e-12 -7.95487e-12 7.8761e-12 7.8761e-12 -7.89999e-12 -7.89999e-12 7.88738e-12 7.88738e-12 -7.72564e-12 -7.72564e-12 7.33643e-12 7.33643e-12 -6.67927e-12 -6.67927e-12 5.75111e-12 5.75111e-12 -4.58241e-12 -4.58241e-12 3.23062e-12 3.23062e-12 -1.77183e-12 -1.77183e-12 2.91731e-13 2.91731e-13 1.12332e-12 1.12332e-12 -2.39427e-12 -2.39427e-12 3.45581e-12 3.45581e-12 -4.26091e-12 -4.26091e-12 4.78323e-12 4.78323e-12 -5.01756e-12 -5.01756e-12 4.97836e-12 4.97836e-12 -4.69692e-12 -4.69692e-12 4.21731e-12 4.21731e-12 -3.59198e-12 -3.59198e-12 2.87697e-12 2.87697e-12 -2.12757e-12 -2.12757e-12 1.39444e-12 1.39444e-12 -7.20643e-13 -7.20643e-13 1.39558e-13 1.39558e-13 3.26202e-13 3.26202e-13 -6.64929e-13 -6.64929e-13 8.75141e-13 8.75141e-13 -9.64256e-13 -9.64256e-13 9.46796e-13 9.46796e-13 -8.42337e-13 -8.42337e-13 6.73391e-13 6.73391e-13 -4.63385e-13 -4.63385e-13 2.34878e-13 2.34878e-13 -8.11827e-15 -8.11827e-15 -2.00023e-13 -2.00023e-13 3.76701e-13 3.76701e-13 -5.13355e-13 -5.13355e-13 6.05627e-13 6.05627e-13 -6.52983e-13 -6.52983e-13 6.58125e-13 6.58125e-13 -6.26274e-13 -6.26274e-13 5.64389e-13 5.64389e-13 -4.80388e-13 -4.80388e-13 3.82439e-13 3.82439e-13 -2.78349e-13 -2.78349e-13 1.7509e-13 1.7509e-13 -7.84545e-14 -7.84545e-14 -7.135e-15 -7.135e-15 7.86913e-14 7.86913e-14 -1.34615e-13 -1.34615e-13 1.74555e-13 1.74555e-13 -1.99211e-13 -1.99211e-13 2.10094e-13 2.10094e-13 -2.09275e-13 -2.09275e-13 1.99142e-13 1.99142e-13 -1.82179e-13 -1.82179e-13 1.60782e-13 1.60782e-13 -1.37113e-13 -1.37113e-13 1.13005e-13 1.13005e-13 -8.99023e-14 -8.99023e-14 6.88467e-14 6.88467e-14 -5.04903e-14 -5.04903e-14 3.51376e-14 3.51376e-14 -2.28026e-14 -2.28026e-14 1.32759e-14 1.32759e-14 -6.19463e-15 -6.19463e-15 1.10814e-15 1.10814e-15 2.46285e-15 2.46285e-15 -4.97843e-15 -4.97843e-15 6.84363e-15 6.84363e-15 -8.38507e-15 -8.38507e-15 9.83945e-15 9.83945e-15 -1.13524e-14 -1.13524e-14 1.29858e-14 1.29858e-14 -1.47307e-14 -1.47307e-14 1.65249e-14 1.65249e-14 -1.82712e-14 -1.82712e-14 1.9856e-14 1.9856e-14 -2.11661e-14 -2.11661e-14 2.21021e-14 2.21021e-14 -2.25887e-14 -2.25887e-14 2.25813e-14 2.25813e-14 -2.20686e-14 -2.20686e-14 2.10719e-14 2.10719e-14 -1.96416e-14 -1.96416e-14 1.7852e-14 1.7852e-14 -1.57939e-14 -1.57939e-14 1.35679e-14 1.35679e-14 -1.12764e-14 -1.12764e-14 9.01716e-15 9.01716e-15 -6.87761e-15 -6.87761e-15 4.93028e-15 4.93028e-15 -3.23009e-15 -3.23009e-15 1.81286e-15 1.81286e-15 -6.95352e-16 -6.95352e-16 -1.23506e-16 -1.23506e-16 6.60419e-16 6.60419e-16 -9.44792e-16 -9.44792e-16 1.01539e-15 1.01539e-15 -9.16837e-16 -9.16837e-16 6.96218e-16 6.96218e-16 -3.99975e-16 -3.99975e-16 7.12578e-17 7.12578e-17 2.52158e-16 2.52158e-16 -5.39342e-16 -5.39342e-16 7.67058e-16 7.67058e-16 -9.20028e-16 -9.20028e-16 9.90672e-16 9.90672e-16 -9.78417e-16 -9.78417e-16 8.88684e-16 8.88684e-16 -7.31654e-16 -7.31654e-16 5.20925e-16 5.20925e-16 -2.72153e-16 -2.72153e-16 1.77847e-18 1.77847e-18 2.74125e-16 2.74125e-16 -5.40799e-16 -5.40799e-16 7.85533e-16 7.85533e-16 -9.98169e-16 -9.98169e-16 1.17138e-15 1.17138e-15 -1.30072e-15 -1.30072e-15 1.38453e-15 1.38453e-15 -1.42365e-15 -1.42365e-15 1.42107e-15 1.42107e-15 -1.38145e-15 -1.38145e-15 1.31067e-15 1.31067e-15 -1.21532e-15 -1.21532e-15 1.10227e-15 1.10227e-15 -9.78289e-16 -9.78289e-16 8.49656e-16 8.49656e-16 -7.21943e-16 -7.21943e-16 5.99827e-16 5.99827e-16 -4.8698e-16 -4.8698e-16 3.86049e-16 3.86049e-16 -2.98677e-16 -2.98677e-16 2.25591e-16 2.25591e-16 -1.66717e-16 -1.66717e-16 1.21321e-16 1.21321e-16 -8.81665e-17 -8.81665e-17 6.56684e-17 6.56684e-17 -5.20423e-17 -5.20423e-17 4.54368e-17 4.54368e-17 -4.40469e-17 -4.40469e-17 4.62035e-17 4.62035e-17 -5.0439e-17 -5.0439e-17 5.55289e-17 5.55289e-17 -6.05118e-17 -6.05118e-17 6.46899e-17 6.46899e-17 -6.76136e-17 -6.76136e-17 6.90555e-17 6.90555e-17 -6.89743e-17 -6.89743e-17 6.74761e-17 6.74761e-17 -6.47737e-17 -6.47737e-17 6.1147e-17 6.1147e-17 -5.6908e-17 -5.6908e-17 5.23699e-17 5.23699e-17 -4.78234e-17 -4.78234e-17 4.35179e-17 4.35179e-17 -3.96506e-17 -3.96506e-17 3.63603e-17 3.63603e-17 -3.37268e-17 -3.37268e-17 3.17744e-17 3.17744e-17 -3.04783e-17 -3.04783e-17 2.97738e-17 2.97738e-17 -2.95657e-17 -2.95657e-17 2.97389e-17 2.97389e-17 -3.01683e-17 -3.01683e-17 3.07274e-17 3.07274e-17 -3.12963e-17 -3.12963e-17 3.17675e-17 3.17675e-17 -3.20506e-17 -3.20506e-17 3.20745e-17 3.20745e-17 -3.17892e-17 -3.17892e-17 3.11657e-17 3.11657e-17 -3.01945e-17 -3.01945e-17 2.88838e-17 2.88838e-17 -2.72572e-17 -2.72572e-17 2.53505e-17 2.53505e-17 -2.32087e-17 -2.32087e-17 2.08829e-17 2.08829e-17 -1.8428e-17 -1.8428e-17 1.58994e-17 1.58994e-17 -1.33514e-17 -1.33514e-17 1.08351e-17 1.08351e-17 -8.3971e-18 -8.3971e-18 6.0785e-18 6.0785e-18 -3.91401e-18 -3.91401e-18 1.9317e-18 1.9317e-18 -1.52857e-19 -1.52857e-19 -1.40791e-18 -1.40791e-18 2.7424e-18 2.7424e-18 -3.84839e-18 -3.84839e-18 4.72911e-18 4.72911e-18 -5.39262e-18 -5.39262e-18 5.85114e-18 5.85114e-18 -6.12038e-18 -6.12038e-18 6.21879e-18 6.21879e-18 -6.16691e-18 -6.16691e-18 5.9866e-18 5.9866e-18 -5.70041e-18 -5.70041e-18 5.33097e-18 5.33097e-18 -4.90036e-18 -4.90036e-18 4.4296e-18 4.4296e-18 -3.9382e-18 -3.9382e-18 3.44377e-18 3.44377e-18 -2.96172e-18 -2.96172e-18 2.50503e-18 2.50503e-18 -2.08414e-18 -2.08414e-18 1.70688e-18 1.70688e-18 -1.37852e-18 -1.37852e-18 1.1019e-18 1.1019e-18 -8.7757e-19 -8.7757e-19 7.04098e-19 7.04098e-19 -5.78302e-19 -5.78302e-19 4.95599e-19 4.95599e-19 -4.50337e-19 -4.50337e-19 4.36143e-19 4.36143e-19 -4.46258e-19 -4.46258e-19 4.73857e-19 4.73857e-19 -5.12331e-19 -5.12331e-19 5.55541e-19 5.55541e-19 -5.9801e-19 -5.9801e-19 6.35085e-19 6.35085e-19 -6.63035e-19 -6.63035e-19 6.79102e-19 6.79102e-19 -6.81509e-19 -6.81509e-19 6.69423e-19 6.69423e-19 -6.42881e-19 -6.42881e-19 6.02685e-19 6.02685e-19 -5.50281e-19 -5.50281e-19 4.87618e-19 4.87618e-19 -4.17002e-19 -4.17002e-19 3.40953e-19 3.40953e-19 -2.62066e-19 -2.62066e-19 1.82883e-19 1.82883e-19 -1.05789e-19 -1.05789e-19 3.29165e-20 3.29165e-20 3.39225e-20 3.39225e-20 -9.32808e-20 -9.32808e-20 1.44104e-19 1.44104e-19 -1.85735e-19 -1.85735e-19 2.17901e-19 2.17901e-19 -2.40689e-19 -2.40689e-19 2.54501e-19 2.54501e-19 -2.60006e-19 -2.60006e-19 2.58087e-19 2.58087e-19 -2.49782e-19 -2.49782e-19 2.36225e-19 2.36225e-19 -2.18592e-19 -2.18592e-19 1.98051e-19 1.98051e-19 -1.75718e-19 -1.75718e-19 1.52621e-19 1.52621e-19 -1.2967e-19 -1.2967e-19 1.0764e-19 1.0764e-19 -8.71553e-20 -8.71553e-20 6.86905e-20 6.86905e-20 -5.25687e-20 -5.25687e-20 3.89718e-20 3.89718e-20 -2.79537e-20 -2.79537e-20 1.94564e-20 1.94564e-20 -1.33294e-20 -1.33294e-20 9.34926e-21 9.34926e-21 -7.24036e-21 -7.24036e-21 6.69394e-21 6.69394e-21 -7.38637e-21 -7.38637e-21 8.99509e-21 8.99509e-21 -1.12122e-20 -1.12122e-20 1.37552e-20 1.37552e-20 -1.63754e-20 -1.63754e-20 1.88633e-20 1.88633e-20 -2.10513e-20 -2.10513e-20 2.28146e-20 2.28146e-20 -2.40699e-20 -2.40699e-20 2.47724e-20 2.47724e-20 -2.49118e-20 -2.49118e-20 2.45069e-20 2.45069e-20 -2.36006e-20 -2.36006e-20 2.2254e-20 2.2254e-20 -2.05408e-20 -2.05408e-20 1.8542e-20 1.8542e-20 -1.63412e-20 -1.63412e-20 1.40205e-20 1.40205e-20 -1.16571e-20 -1.16571e-20 9.3206e-21 9.3206e-21 -7.07134e-21 -7.07134e-21 4.95896e-21 4.95896e-21 -3.02205e-21 -3.02205e-21 1.28817e-21 1.28817e-21 2.25611e-22 2.25611e-22 -1.51183e-21 -1.51183e-21 2.57145e-21 2.57145e-21 -3.41253e-21 -3.41253e-21 4.04878e-21 4.04878e-21 -4.49814e-21 -4.49814e-21 4.78144e-21 4.78144e-21 -4.92108e-21 -4.92108e-21 4.93995e-21 4.93995e-21 -4.86052e-21 -4.86052e-21 4.70401e-21 4.70401e-21 -4.4899e-21 -4.4899e-21 4.23547e-21 4.23547e-21 -3.95563e-21 -3.95563e-21 3.66281e-21 3.66281e-21 -3.36699e-21 -3.36699e-21 3.07587e-21 3.07587e-21 -2.79506e-21 -2.79506e-21 2.52834e-21 2.52834e-21 -2.27794e-21 -2.27794e-21 2.04487e-21 2.04487e-21 -1.82918e-21 -1.82918e-21 1.63021e-21 1.63021e-21 -1.44689e-21 -1.44689e-21 1.27789e-21 1.27789e-21 -1.1218e-21 -1.1218e-21 9.77284e-22 9.77284e-22 -8.4313e-22 -8.4313e-22 7.18335e-22 7.18335e-22 -6.0212e-22 -6.0212e-22 4.93933e-22 4.93933e-22 -3.93432e-22 -3.93432e-22 3.00452e-22 3.00452e-22 -2.14964e-22 -2.14964e-22 1.3703e-22 1.3703e-22 -6.67601e-23 -6.67601e-23 4.26527e-24 4.26527e-24 5.03764e-23 5.03764e-23 -9.71515e-23 -9.71515e-23 1.36133e-22 1.36133e-22 -1.67495e-22 -1.67495e-22 1.91517e-22 1.91517e-22 -2.08585e-22 -2.08585e-22 2.19183e-22 2.19183e-22 -2.23879e-22 -2.23879e-22 2.23308e-22 2.23308e-22 -2.18156e-22 -2.18156e-22 2.09135e-22 2.09135e-22 -1.96968e-22 -1.96968e-22 1.82364e-22 1.82364e-22 -1.66005e-22 -1.66005e-22 1.48527e-22 1.48527e-22 -1.3051e-22 -1.3051e-22 1.12469e-22 1.12469e-22 -9.48457e-23 -9.48457e-23 7.80074e-23 7.80074e-23 -6.22455e-23 -6.22455e-23 4.77783e-23 4.77783e-23 -3.47547e-23 -3.47547e-23 2.32607e-23 2.32607e-23 -1.33259e-23 -1.33259e-23 4.93148e-24 4.93148e-24 1.98094e-24 1.98094e-24 -7.50161e-24 -7.50161e-24 1.17443e-23 1.17443e-23 -1.48387e-23 -1.48387e-23 1.69237e-23 1.69237e-23 -1.81417e-23 -1.81417e-23 1.86328e-23 1.86328e-23 -1.85315e-23 -1.85315e-23 1.79631e-23 1.79631e-23 -1.70414e-23 -1.70414e-23 1.58676e-23 1.58676e-23 -1.45292e-23 -1.45292e-23 1.31e-23 1.31e-23 -1.16409e-23 -1.16409e-23 1.01998e-23 1.01998e-23 -8.81344e-24 -8.81344e-24 7.5085e-24 7.5085e-24 -6.30269e-24 -6.30269e-24 5.20638e-24 5.20638e-24 -4.22388e-24 -4.22388e-24 3.35473e-24 3.35473e-24 -2.59483e-24 -2.59483e-24 1.93753e-24 1.93753e-24 -1.37449e-24 -1.37449e-24 8.96381e-25 8.96381e-25 -4.93552e-25 -4.93552e-25 1.56429e-25 1.56429e-25 1.24115e-25 1.24115e-25 -3.56533e-25 -3.56533e-25 5.48461e-25 5.48461e-25 -7.06638e-25 -7.06638e-25 8.36896e-25 8.36896e-25 -9.4418e-25 -9.4418e-25 1.0326e-24 1.0326e-24 -1.10552e-24 -1.10552e-24 1.16562e-24 1.16562e-24 -1.21498e-24 -1.21498e-24 1.2552e-24 1.2552e-24 -1.28744e-24 -1.28744e-24 1.31254e-24 1.31254e-24 -1.33103e-24 -1.33103e-24 1.34323e-24 1.34323e-24 -1.3493e-24 -1.3493e-24 1.34929e-24 1.34929e-24 -1.34314e-24 -1.34314e-24 1.33078e-24 1.33078e-24 -1.31209e-24 -1.31209e-24 1.287e-24 1.287e-24 -1.25545e-24 -1.25545e-24 1.21744e-24 1.21744e-24 -1.17306e-24 -1.17306e-24 1.12247e-24 1.12247e-24 -1.06594e-24 -1.06594e-24 1.00382e-24 1.00382e-24 -9.36591e-25 -9.36591e-25 8.6481e-25 8.6481e-25 -7.89147e-25 -7.89147e-25 7.10351e-25 7.10351e-25 -6.29248e-25 -6.29248e-25 5.4672e-25 5.4672e-25 -4.63686e-25 -4.63686e-25 3.81089e-25 3.81089e-25 -2.99866e-25 -2.99866e-25 2.20933e-25 2.20933e-25 -1.45163e-25 -1.45163e-25 7.33649e-26 7.33649e-26 -6.26614e-27 -6.26614e-27 -5.55016e-26 -5.55016e-26 1.11416e-25 1.11416e-25 -1.61072e-25 -1.61072e-25 2.04189e-25 2.04189e-25 -2.40612e-25 -2.40612e-25 2.70312e-25 2.70312e-25 -2.93379e-25 -2.93379e-25 3.10016e-25 3.10016e-25 -3.2053e-25 -3.2053e-25 3.25316e-25 3.25316e-25 -3.24848e-25 -3.24848e-25 3.19657e-25 3.19657e-25 -3.10323e-25 -3.10323e-25 2.9745e-25 2.9745e-25 -2.8166e-25 -2.8166e-25 2.63568e-25 2.63568e-25 -2.43778e-25 -2.43778e-25 2.22861e-25 2.22861e-25 -2.01354e-25 -2.01354e-25 1.79742e-25 1.79742e-25 -1.5846e-25 -1.5846e-25 1.37882e-25 1.37882e-25 -1.1832e-25 -1.1832e-25 1.00026e-25 1.00026e-25 -8.31885e-26 -8.31885e-26 6.79392e-26 6.79392e-26 -5.43534e-26 -5.43534e-26 4.24566e-26 4.24566e-26 -3.22298e-26 -3.22298e-26 2.36155e-26 2.36155e-26 -1.65245e-26 -1.65245e-26 1.08423e-26 1.08423e-26 -6.43584e-27 -6.43584e-27 3.15957e-27 3.15957e-27 -8.61295e-28 -8.61295e-28 -6.12597e-28 -6.12597e-28 1.41256e-27 1.41256e-27 -1.68199e-27 -1.68199e-27 1.55414e-27 1.55414e-27 -1.14963e-27 -1.14963e-27 5.74847e-28 5.74847e-28 7.91349e-29 7.91349e-29 -7.36924e-28 -7.36924e-28 1.33867e-27 1.33867e-27 -1.83946e-27 -1.83946e-27 2.20829e-27 2.20829e-27 -2.42682e-27 -2.42682e-27 2.4878e-27 2.4878e-27 -2.39347e-27 -2.39347e-27 2.15381e-27 2.15381e-27 -1.78486e-27 -1.78486e-27 1.30704e-27 1.30704e-27 -7.43598e-28 -7.43598e-28 1.19234e-28 1.19234e-28 5.41175e-28 5.41175e-28 -1.21361e-27 -1.21361e-27 1.87579e-27 1.87579e-27 -2.50781e-27 -2.50781e-27 3.09264e-27 3.09264e-27 -3.61642e-27 -3.61642e-27 4.06858e-27 4.06858e-27 -4.44187e-27 -4.44187e-27 4.73219e-27 4.73219e-27 -4.93838e-27 -4.93838e-27 5.06193e-27 5.06193e-27 -5.1066e-27 -5.1066e-27 5.07806e-27 5.07806e-27 -4.98343e-27 -4.98343e-27 4.83092e-27 4.83092e-27 -4.62945e-27 -4.6