# vtk DataFile Version 3.0
#This file was generated by the deal.II library on 2020/8/11 at 22:18:35
ASCII
DATASET UNSTRUCTURED_GRID

POINTS 4096 double
0.5 0 0
0.743896 0 0
0.743896 0 0
0.987793 0 0
0.987793 0 0
1.23169 0 0
1.23169 0 0
1.47559 0 0
1.47559 0 0
1.71948 0 0
1.71948 0 0
1.96338 0 0
1.96338 0 0
2.20728 0 0
2.20728 0 0
2.45117 0 0
2.45117 0 0
2.69507 0 0
2.69507 0 0
2.93896 0 0
2.93896 0 0
3.18286 0 0
3.18286 0 0
3.42676 0 0
3.42676 0 0
3.67065 0 0
3.67065 0 0
3.91455 0 0
3.91455 0 0
4.15845 0 0
4.15845 0 0
4.40234 0 0
4.40234 0 0
4.64624 0 0
4.64624 0 0
4.89014 0 0
4.89014 0 0
5.13403 0 0
5.13403 0 0
5.37793 0 0
5.37793 0 0
5.62183 0 0
5.62183 0 0
5.86572 0 0
5.86572 0 0
6.10962 0 0
6.10962 0 0
6.35352 0 0
6.35352 0 0
6.59741 0 0
6.59741 0 0
6.84131 0 0
6.84131 0 0
7.08521 0 0
7.08521 0 0
7.3291 0 0
7.3291 0 0
7.573 0 0
7.573 0 0
7.81689 0 0
7.81689 0 0
8.06079 0 0
8.06079 0 0
8.30469 0 0
8.30469 0 0
8.54858 0 0
8.54858 0 0
8.79248 0 0
8.79248 0 0
9.03638 0 0
9.03638 0 0
9.28027 0 0
9.28027 0 0
9.52417 0 0
9.52417 0 0
9.76807 0 0
9.76807 0 0
10.012 0 0
10.012 0 0
10.2559 0 0
10.2559 0 0
10.4998 0 0
10.4998 0 0
10.7437 0 0
10.7437 0 0
10.9875 0 0
10.9875 0 0
11.2314 0 0
11.2314 0 0
11.4753 0 0
11.4753 0 0
11.7192 0 0
11.7192 0 0
11.9631 0 0
11.9631 0 0
12.207 0 0
12.207 0 0
12.4509 0 0
12.4509 0 0
12.6948 0 0
12.6948 0 0
12.9387 0 0
12.9387 0 0
13.1826 0 0
13.1826 0 0
13.4265 0 0
13.4265 0 0
13.6704 0 0
13.6704 0 0
13.9143 0 0
13.9143 0 0
14.1582 0 0
14.1582 0 0
14.4021 0 0
14.4021 0 0
14.646 0 0
14.646 0 0
14.8899 0 0
14.8899 0 0
15.1338 0 0
15.1338 0 0
15.3777 0 0
15.3777 0 0
15.6216 0 0
15.6216 0 0
15.8655 0 0
15.8655 0 0
16.1094 0 0
16.1094 0 0
16.3533 0 0
16.3533 0 0
16.5972 0 0
16.5972 0 0
16.8411 0 0
16.8411 0 0
17.085 0 0
17.085 0 0
17.3289 0 0
17.3289 0 0
17.5728 0 0
17.5728 0 0
17.8167 0 0
17.8167 0 0
18.0605 0 0
18.0605 0 0
18.3044 0 0
18.3044 0 0
18.5483 0 0
18.5483 0 0
18.7922 0 0
18.7922 0 0
19.0361 0 0
19.0361 0 0
19.28 0 0
19.28 0 0
19.5239 0 0
19.5239 0 0
19.7678 0 0
19.7678 0 0
20.0117 0 0
20.0117 0 0
20.2556 0 0
20.2556 0 0
20.4995 0 0
20.4995 0 0
20.7434 0 0
20.7434 0 0
20.9873 0 0
20.9873 0 0
21.2312 0 0
21.2312 0 0
21.4751 0 0
21.4751 0 0
21.719 0 0
21.719 0 0
21.9629 0 0
21.9629 0 0
22.2068 0 0
22.2068 0 0
22.4507 0 0
22.4507 0 0
22.6946 0 0
22.6946 0 0
22.9385 0 0
22.9385 0 0
23.1824 0 0
23.1824 0 0
23.4263 0 0
23.4263 0 0
23.6702 0 0
23.6702 0 0
23.9141 0 0
23.9141 0 0
24.158 0 0
24.158 0 0
24.4019 0 0
24.4019 0 0
24.6458 0 0
24.6458 0 0
24.8896 0 0
24.8896 0 0
25.1335 0 0
25.1335 0 0
25.3774 0 0
25.3774 0 0
25.6213 0 0
25.6213 0 0
25.8652 0 0
25.8652 0 0
26.1091 0 0
26.1091 0 0
26.353 0 0
26.353 0 0
26.5969 0 0
26.5969 0 0
26.8408 0 0
26.8408 0 0
27.0847 0 0
27.0847 0 0
27.3286 0 0
27.3286 0 0
27.5725 0 0
27.5725 0 0
27.8164 0 0
27.8164 0 0
28.0603 0 0
28.0603 0 0
28.3042 0 0
28.3042 0 0
28.5481 0 0
28.5481 0 0
28.792 0 0
28.792 0 0
29.0359 0 0
29.0359 0 0
29.2798 0 0
29.2798 0 0
29.5237 0 0
29.5237 0 0
29.7676 0 0
29.7676 0 0
30.0115 0 0
30.0115 0 0
30.2554 0 0
30.2554 0 0
30.4993 0 0
30.4993 0 0
30.7432 0 0
30.7432 0 0
30.9871 0 0
30.9871 0 0
31.231 0 0
31.231 0 0
31.4749 0 0
31.4749 0 0
31.7188 0 0
31.7188 0 0
31.9626 0 0
31.9626 0 0
32.2065 0 0
32.2065 0 0
32.4504 0 0
32.4504 0 0
32.6943 0 0
32.6943 0 0
32.9382 0 0
32.9382 0 0
33.1821 0 0
33.1821 0 0
33.426 0 0
33.426 0 0
33.6699 0 0
33.6699 0 0
33.9138 0 0
33.9138 0 0
34.1577 0 0
34.1577 0 0
34.4016 0 0
34.4016 0 0
34.6455 0 0
34.6455 0 0
34.8894 0 0
34.8894 0 0
35.1333 0 0
35.1333 0 0
35.3772 0 0
35.3772 0 0
35.6211 0 0
35.6211 0 0
35.865 0 0
35.865 0 0
36.1089 0 0
36.1089 0 0
36.3528 0 0
36.3528 0 0
36.5967 0 0
36.5967 0 0
36.8406 0 0
36.8406 0 0
37.0845 0 0
37.0845 0 0
37.3284 0 0
37.3284 0 0
37.5723 0 0
37.5723 0 0
37.8162 0 0
37.8162 0 0
38.0601 0 0
38.0601 0 0
38.304 0 0
38.304 0 0
38.5479 0 0
38.5479 0 0
38.7917 0 0
38.7917 0 0
39.0356 0 0
39.0356 0 0
39.2795 0 0
39.2795 0 0
39.5234 0 0
39.5234 0 0
39.7673 0 0
39.7673 0 0
40.0112 0 0
40.0112 0 0
40.2551 0 0
40.2551 0 0
40.499 0 0
40.499 0 0
40.7429 0 0
40.7429 0 0
40.9868 0 0
40.9868 0 0
41.2307 0 0
41.2307 0 0
41.4746 0 0
41.4746 0 0
41.7185 0 0
41.7185 0 0
41.9624 0 0
41.9624 0 0
42.2063 0 0
42.2063 0 0
42.4502 0 0
42.4502 0 0
42.6941 0 0
42.6941 0 0
42.938 0 0
42.938 0 0
43.1819 0 0
43.1819 0 0
43.4258 0 0
43.4258 0 0
43.6697 0 0
43.6697 0 0
43.9136 0 0
43.9136 0 0
44.1575 0 0
44.1575 0 0
44.4014 0 0
44.4014 0 0
44.6453 0 0
44.6453 0 0
44.8892 0 0
44.8892 0 0
45.1331 0 0
45.1331 0 0
45.377 0 0
45.377 0 0
45.6208 0 0
45.6208 0 0
45.8647 0 0
45.8647 0 0
46.1086 0 0
46.1086 0 0
46.3525 0 0
46.3525 0 0
46.5964 0 0
46.5964 0 0
46.8403 0 0
46.8403 0 0
47.0842 0 0
47.0842 0 0
47.3281 0 0
47.3281 0 0
47.572 0 0
47.572 0 0
47.8159 0 0
47.8159 0 0
48.0598 0 0
48.0598 0 0
48.3037 0 0
48.3037 0 0
48.5476 0 0
48.5476 0 0
48.7915 0 0
48.7915 0 0
49.0354 0 0
49.0354 0 0
49.2793 0 0
49.2793 0 0
49.5232 0 0
49.5232 0 0
49.7671 0 0
49.7671 0 0
50.011 0 0
50.011 0 0
50.2549 0 0
50.2549 0 0
50.4988 0 0
50.4988 0 0
50.7427 0 0
50.7427 0 0
50.9866 0 0
50.9866 0 0
51.2305 0 0
51.2305 0 0
51.4744 0 0
51.4744 0 0
51.7183 0 0
51.7183 0 0
51.9622 0 0
51.9622 0 0
52.2061 0 0
52.2061 0 0
52.45 0 0
52.45 0 0
52.6938 0 0
52.6938 0 0
52.9377 0 0
52.9377 0 0
53.1816 0 0
53.1816 0 0
53.4255 0 0
53.4255 0 0
53.6694 0 0
53.6694 0 0
53.9133 0 0
53.9133 0 0
54.1572 0 0
54.1572 0 0
54.4011 0 0
54.4011 0 0
54.645 0 0
54.645 0 0
54.8889 0 0
54.8889 0 0
55.1328 0 0
55.1328 0 0
55.3767 0 0
55.3767 0 0
55.6206 0 0
55.6206 0 0
55.8645 0 0
55.8645 0 0
56.1084 0 0
56.1084 0 0
56.3523 0 0
56.3523 0 0
56.5962 0 0
56.5962 0 0
56.8401 0 0
56.8401 0 0
57.084 0 0
57.084 0 0
57.3279 0 0
57.3279 0 0
57.5718 0 0
57.5718 0 0
57.8157 0 0
57.8157 0 0
58.0596 0 0
58.0596 0 0
58.3035 0 0
58.3035 0 0
58.5474 0 0
58.5474 0 0
58.7913 0 0
58.7913 0 0
59.0352 0 0
59.0352 0 0
59.2791 0 0
59.2791 0 0
59.5229 0 0
59.5229 0 0
59.7668 0 0
59.7668 0 0
60.0107 0 0
60.0107 0 0
60.2546 0 0
60.2546 0 0
60.4985 0 0
60.4985 0 0
60.7424 0 0
60.7424 0 0
60.9863 0 0
60.9863 0 0
61.2302 0 0
61.2302 0 0
61.4741 0 0
61.4741 0 0
61.718 0 0
61.718 0 0
61.9619 0 0
61.9619 0 0
62.2058 0 0
62.2058 0 0
62.4497 0 0
62.4497 0 0
62.6936 0 0
62.6936 0 0
62.9375 0 0
62.9375 0 0
63.1814 0 0
63.1814 0 0
63.4253 0 0
63.4253 0 0
63.6692 0 0
63.6692 0 0
63.9131 0 0
63.9131 0 0
64.157 0 0
64.157 0 0
64.4009 0 0
64.4009 0 0
64.6448 0 0
64.6448 0 0
64.8887 0 0
64.8887 0 0
65.1326 0 0
65.1326 0 0
65.3765 0 0
65.3765 0 0
65.6204 0 0
65.6204 0 0
65.8643 0 0
65.8643 0 0
66.1082 0 0
66.1082 0 0
66.3521 0 0
66.3521 0 0
66.5959 0 0
66.5959 0 0
66.8398 0 0
66.8398 0 0
67.0837 0 0
67.0837 0 0
67.3276 0 0
67.3276 0 0
67.5715 0 0
67.5715 0 0
67.8154 0 0
67.8154 0 0
68.0593 0 0
68.0593 0 0
68.3032 0 0
68.3032 0 0
68.5471 0 0
68.5471 0 0
68.791 0 0
68.791 0 0
69.0349 0 0
69.0349 0 0
69.2788 0 0
69.2788 0 0
69.5227 0 0
69.5227 0 0
69.7666 0 0
69.7666 0 0
70.0105 0 0
70.0105 0 0
70.2544 0 0
70.2544 0 0
70.4983 0 0
70.4983 0 0
70.7422 0 0
70.7422 0 0
70.9861 0 0
70.9861 0 0
71.23 0 0
71.23 0 0
71.4739 0 0
71.4739 0 0
71.7178 0 0
71.7178 0 0
71.9617 0 0
71.9617 0 0
72.2056 0 0
72.2056 0 0
72.4495 0 0
72.4495 0 0
72.6934 0 0
72.6934 0 0
72.9373 0 0
72.9373 0 0
73.1812 0 0
73.1812 0 0
73.425 0 0
73.425 0 0
73.6689 0 0
73.6689 0 0
73.9128 0 0
73.9128 0 0
74.1567 0 0
74.1567 0 0
74.4006 0 0
74.4006 0 0
74.6445 0 0
74.6445 0 0
74.8884 0 0
74.8884 0 0
75.1323 0 0
75.1323 0 0
75.3762 0 0
75.3762 0 0
75.6201 0 0
75.6201 0 0
75.864 0 0
75.864 0 0
76.1079 0 0
76.1079 0 0
76.3518 0 0
76.3518 0 0
76.5957 0 0
76.5957 0 0
76.8396 0 0
76.8396 0 0
77.0835 0 0
77.0835 0 0
77.3274 0 0
77.3274 0 0
77.5713 0 0
77.5713 0 0
77.8152 0 0
77.8152 0 0
78.0591 0 0
78.0591 0 0
78.303 0 0
78.303 0 0
78.5469 0 0
78.5469 0 0
78.7908 0 0
78.7908 0 0
79.0347 0 0
79.0347 0 0
79.2786 0 0
79.2786 0 0
79.5225 0 0
79.5225 0 0
79.7664 0 0
79.7664 0 0
80.0103 0 0
80.0103 0 0
80.2542 0 0
80.2542 0 0
80.498 0 0
80.498 0 0
80.7419 0 0
80.7419 0 0
80.9858 0 0
80.9858 0 0
81.2297 0 0
81.2297 0 0
81.4736 0 0
81.4736 0 0
81.7175 0 0
81.7175 0 0
81.9614 0 0
81.9614 0 0
82.2053 0 0
82.2053 0 0
82.4492 0 0
82.4492 0 0
82.6931 0 0
82.6931 0 0
82.937 0 0
82.937 0 0
83.1809 0 0
83.1809 0 0
83.4248 0 0
83.4248 0 0
83.6687 0 0
83.6687 0 0
83.9126 0 0
83.9126 0 0
84.1565 0 0
84.1565 0 0
84.4004 0 0
84.4004 0 0
84.6443 0 0
84.6443 0 0
84.8882 0 0
84.8882 0 0
85.1321 0 0
85.1321 0 0
85.376 0 0
85.376 0 0
85.6199 0 0
85.6199 0 0
85.8638 0 0
85.8638 0 0
86.1077 0 0
86.1077 0 0
86.3516 0 0
86.3516 0 0
86.5955 0 0
86.5955 0 0
86.8394 0 0
86.8394 0 0
87.0833 0 0
87.0833 0 0
87.3271 0 0
87.3271 0 0
87.571 0 0
87.571 0 0
87.8149 0 0
87.8149 0 0
88.0588 0 0
88.0588 0 0
88.3027 0 0
88.3027 0 0
88.5466 0 0
88.5466 0 0
88.7905 0 0
88.7905 0 0
89.0344 0 0
89.0344 0 0
89.2783 0 0
89.2783 0 0
89.5222 0 0
89.5222 0 0
89.7661 0 0
89.7661 0 0
90.01 0 0
90.01 0 0
90.2539 0 0
90.2539 0 0
90.4978 0 0
90.4978 0 0
90.7417 0 0
90.7417 0 0
90.9856 0 0
90.9856 0 0
91.2295 0 0
91.2295 0 0
91.4734 0 0
91.4734 0 0
91.7173 0 0
91.7173 0 0
91.9612 0 0
91.9612 0 0
92.2051 0 0
92.2051 0 0
92.449 0 0
92.449 0 0
92.6929 0 0
92.6929 0 0
92.9368 0 0
92.9368 0 0
93.1807 0 0
93.1807 0 0
93.4246 0 0
93.4246 0 0
93.6685 0 0
93.6685 0 0
93.9124 0 0
93.9124 0 0
94.1562 0 0
94.1562 0 0
94.4001 0 0
94.4001 0 0
94.644 0 0
94.644 0 0
94.8879 0 0
94.8879 0 0
95.1318 0 0
95.1318 0 0
95.3757 0 0
95.3757 0 0
95.6196 0 0
95.6196 0 0
95.8635 0 0
95.8635 0 0
96.1074 0 0
96.1074 0 0
96.3513 0 0
96.3513 0 0
96.5952 0 0
96.5952 0 0
96.8391 0 0
96.8391 0 0
97.083 0 0
97.083 0 0
97.3269 0 0
97.3269 0 0
97.5708 0 0
97.5708 0 0
97.8147 0 0
97.8147 0 0
98.0586 0 0
98.0586 0 0
98.3025 0 0
98.3025 0 0
98.5464 0 0
98.5464 0 0
98.7903 0 0
98.7903 0 0
99.0342 0 0
99.0342 0 0
99.2781 0 0
99.2781 0 0
99.522 0 0
99.522 0 0
99.7659 0 0
99.7659 0 0
100.01 0 0
100.01 0 0
100.254 0 0
100.254 0 0
100.498 0 0
100.498 0 0
100.741 0 0
100.741 0 0
100.985 0 0
100.985 0 0
101.229 0 0
101.229 0 0
101.473 0 0
[...]
POINT_DATA 4096
SCALARS solution_0 double 1
LOOKUP_TABLE default
0.174084 -9.51045e+14 -9.51045e+14 -3.74757e+14 -3.74757e+14 -2.44596e+14 -2.44596e+14 -1.80801e+14 -1.80801e+14 -1.41488e+14 -1.41488e+14 -1.14414e+14 -1.14414e+14 -9.45138e+13 -9.45138e+13 -7.92527e+13 -7.92527e+13 -6.71977e+13 -6.71977e+13 -5.74659e+13 -5.74659e+13 -4.94789e+13 -4.94789e+13 -4.28384e+13 -4.28384e+13 -3.72597e+13 -3.72597e+13 -3.25333e+13 -3.25333e+13 -2.85005e+13 -2.85005e+13 -2.50391e+13 -2.50391e+13 -2.20531e+13 -2.20531e+13 -1.94659e+13 -1.94659e+13 -1.72158e+13 -1.72158e+13 -1.52523e+13 -1.52523e+13 -1.3534e+13 -1.3534e+13 -1.20263e+13 -1.20263e+13 -1.07002e+13 -1.07002e+13 -9.53159e+12 -9.53159e+12 -8.49969e+12 -8.49969e+12 -7.587e+12 -7.587e+12 -6.77848e+12 -6.77848e+12 -6.06122e+12 -6.06122e+12 -5.4241e+12 -5.4241e+12 -4.85748e+12 -4.85748e+12 -4.35301e+12 -4.35301e+12 -3.9034e+12 -3.9034e+12 -3.50231e+12 -3.50231e+12 -3.14419e+12 -3.14419e+12 -2.82417e+12 -2.82417e+12 -2.53798e+12 -2.53798e+12 -2.28185e+12 -2.28185e+12 -2.05248e+12 -2.05248e+12 -1.84694e+12 -1.84694e+12 -1.66264e+12 -1.66264e+12 -1.4973e+12 -1.4973e+12 -1.34888e+12 -1.34888e+12 -1.21559e+12 -1.21559e+12 -1.09583e+12 -1.09583e+12 -9.88171e+11 -9.88171e+11 -8.91355e+11 -8.91355e+11 -8.04252e+11 -8.04252e+11 -7.25858e+11 -7.25858e+11 -6.55275e+11 -6.55275e+11 -5.91704e+11 -5.91704e+11 -5.34428e+11 -5.34428e+11 -4.82807e+11 -4.82807e+11 -4.36269e+11 -4.36269e+11 -3.94301e+11 -3.94301e+11 -3.56442e+11 -3.56442e+11 -3.22283e+11 -3.22283e+11 -2.91452e+11 -2.91452e+11 -2.63619e+11 -2.63619e+11 -2.38487e+11 -2.38487e+11 -2.15787e+11 -2.15787e+11 -1.9528e+11 -1.9528e+11 -1.76751e+11 -1.76751e+11 -1.60004e+11 -1.60004e+11 -1.44866e+11 -1.44866e+11 -1.31179e+11 -1.31179e+11 -1.18802e+11 -1.18802e+11 -1.07607e+11 -1.07607e+11 -9.74803e+10 -9.74803e+10 -8.83179e+10 -8.83179e+10 -8.00266e+10 -8.00266e+10 -7.25225e+10 -7.25225e+10 -6.57298e+10 -6.57298e+10 -5.95801e+10 -5.95801e+10 -5.40118e+10 -5.40118e+10 -4.89692e+10 -4.89692e+10 -4.44021e+10 -4.44021e+10 -4.02651e+10 -4.02651e+10 -3.65171e+10 -3.65171e+10 -3.31213e+10 -3.31213e+10 -3.00441e+10 -3.00441e+10 -2.72553e+10 -2.72553e+10 -2.47276e+10 -2.47276e+10 -2.24363e+10 -2.24363e+10 -2.03591e+10 -2.03591e+10 -1.84757e+10 -1.84757e+10 -1.67679e+10 -1.67679e+10 -1.52192e+10 -1.52192e+10 -1.38146e+10 -1.38146e+10 -1.25406e+10 -1.25406e+10 -1.1385e+10 -1.1385e+10 -1.03366e+10 -1.03366e+10 -9.38538e+09 -9.38538e+09 -8.52232e+09 -8.52232e+09 -7.73914e+09 -7.73914e+09 -7.02841e+09 -7.02841e+09 -6.38337e+09 -6.38337e+09 -5.7979e+09 -5.7979e+09 -5.26645e+09 -5.26645e+09 -4.78401e+09 -4.78401e+09 -4.34603e+09 -4.34603e+09 -3.94838e+09 -3.94838e+09 -3.58732e+09 -3.58732e+09 -3.25947e+09 -3.25947e+09 -2.96174e+09 -2.96174e+09 -2.69135e+09 -2.69135e+09 -2.44578e+09 -2.44578e+09 -2.22273e+09 -2.22273e+09 -2.02013e+09 -2.02013e+09 -1.83609e+09 -1.83609e+09 -1.66889e+09 -1.66889e+09 -1.517e+09 -1.517e+09 -1.37899e+09 -1.37899e+09 -1.2536e+09 -1.2536e+09 -1.13967e+09 -1.13967e+09 -1.03613e+09 -1.03613e+09 -9.42047e+08 -9.42047e+08 -8.56541e+08 -8.56541e+08 -7.7883e+08 -7.7883e+08 -7.082e+08 -7.082e+08 -6.44001e+08 -6.44001e+08 -5.85646e+08 -5.85646e+08 -5.326e+08 -5.326e+08 -4.84378e+08 -4.84378e+08 -4.4054e+08 -4.4054e+08 -4.00684e+08 -4.00684e+08 -3.64447e+08 -3.64447e+08 -3.315e+08 -3.315e+08 -3.01543e+08 -3.01543e+08 -2.74302e+08 -2.74302e+08 -2.49532e+08 -2.49532e+08 -2.27006e+08 -2.27006e+08 -2.0652e+08 -2.0652e+08 -1.8789e+08 -1.8789e+08 -1.70946e+08 -1.70946e+08 -1.55535e+08 -1.55535e+08 -1.41518e+08 -1.41518e+08 -1.28768e+08 -1.28768e+08 -1.17171e+08 -1.17171e+08 -1.06621e+08 -1.06621e+08 -9.70242e+07 -9.70242e+07 -8.82938e+07 -8.82938e+07 -8.03514e+07 -8.03514e+07 -7.31255e+07 -7.31255e+07 -6.65514e+07 -6.65514e+07 -6.057e+07 -6.057e+07 -5.51278e+07 -5.51278e+07 -5.01759e+07 -5.01759e+07 -4.567e+07 -4.567e+07 -4.15699e+07 -4.15699e+07 -3.78389e+07 -3.78389e+07 -3.44437e+07 -3.44437e+07 -3.13539e+07 -3.13539e+07 -2.8542e+07 -2.8542e+07 -2.5983e+07 -2.5983e+07 -2.36539e+07 -2.36539e+07 -2.15342e+07 -2.15342e+07 -1.96049e+07 -1.96049e+07 -1.78489e+07 -1.78489e+07 -1.62505e+07 -1.62505e+07 -1.47956e+07 -1.47956e+07 -1.34713e+07 -1.34713e+07 -1.22658e+07 -1.22658e+07 -1.11684e+07 -1.11684e+07 -1.01694e+07 -1.01694e+07 -9.26003e+06 -9.26003e+06 -8.43212e+06 -8.43212e+06 -7.67839e+06 -7.67839e+06 -6.99218e+06 -6.99218e+06 -6.36743e+06 -6.36743e+06 -5.79863e+06 -5.79863e+06 -5.28074e+06 -5.28074e+06 -4.8092e+06 -4.8092e+06 -4.37985e+06 -4.37985e+06 -3.98891e+06 -3.98891e+06 -3.63294e+06 -3.63294e+06 -3.3088e+06 -3.3088e+06 -3.01363e+06 -3.01363e+06 -2.74485e+06 -2.74485e+06 -2.50009e+06 -2.50009e+06 -2.27719e+06 -2.27719e+06 -2.0742e+06 -2.0742e+06 -1.88935e+06 -1.88935e+06 -1.72099e+06 -1.72099e+06 -1.56767e+06 -1.56767e+06 -1.42803e+06 -1.42803e+06 -1.30085e+06 -1.30085e+06 -1.18502e+06 -1.18502e+06 -1.07952e+06 -1.07952e+06 -983425 -983425 -895902 -895902 -816181 -816181 -743566 -743566 -677422 -677422 -617172 -617172 -562290 -562290 -512295 -512295 -466753 -466753 -425266 -425266 -387472 -387472 -353043 -353043 -321677 -321677 -293102 -293102 -267069 -267069 -243352 -243352 -221745 -221745 -202058 -202058 -184122 -184122 -167781 -167781 -152891 -152891 -139325 -139325 -126965 -126965 -115702 -115702 -105440 -105440 -96089.6 -96089.6 -87569.3 -87569.3 -79805.5 -79805.5 -72730.9 -72730.9 -66284.3 -66284.3 -60409.9 -60409.9 -55056.8 -55056.8 -50178.6 -50178.6 -45733.2 -45733.2 -41682.1 -41682.1 -37990.3 -37990.3 -34625.9 -34625.9 -31559.8 -31559.8 -28765.5 -28765.5 -26219 -26219 -23898.1 -23898.1 -21782.9 -21782.9 -19855.2 -19855.2 -18098.3 -18098.3 -16497 -16497 -15037.5 -15037.5 -13707.3 -13707.3 -12494.9 -12494.9 -11389.9 -11389.9 -10382.7 -10382.7 -9464.64 -9464.64 -8627.86 -8627.86 -7865.15 -7865.15 -7169.93 -7169.93 -6536.23 -6536.23 -5958.59 -5958.59 -5432.06 -5432.06 -4952.1 -4952.1 -4514.59 -4514.59 -4115.78 -4115.78 -3752.23 -3752.23 -3420.83 -3420.83 -3118.73 -3118.73 -2843.33 -2843.33 -2592.27 -2592.27 -2363.41 -2363.41 -2154.77 -2154.77 -1964.56 -1964.56 -1791.16 -1791.16 -1633.08 -1633.08 -1488.97 -1488.97 -1357.58 -1357.58 -1237.8 -1237.8 -1128.6 -1128.6 -1029.04 -1029.04 -938.268 -938.268 -855.512 -855.512 -780.062 -780.062 -711.272 -711.272 -648.554 -648.554 -591.37 -591.37 -539.233 -539.233 -491.697 -491.697 -448.354 -448.354 -408.836 -408.836 -372.803 -372.803 -339.949 -339.949 -309.993 -309.993 -282.679 -282.679 -257.773 -257.773 -235.063 -235.063 -214.356 -214.356 -195.474 -195.474 -178.257 -178.257 -162.558 -162.558 -148.242 -148.242 -135.188 -135.188 -123.284 -123.284 -112.43 -112.43 -102.531 -102.531 -93.5053 -93.5053 -85.2744 -85.2744 -77.7685 -77.7685 -70.9238 -70.9238 -64.682 -64.682 -58.9899 -58.9899 -53.799 -53.799 -49.0653 -49.0653 -44.7484 -44.7484 -40.8116 -40.8116 -37.2213 -37.2213 -33.9472 -33.9472 -30.9612 -30.9612 -28.2381 -28.2381 -25.7546 -25.7546 -23.4897 -23.4897 -21.4241 -21.4241 -19.5403 -19.5403 -17.8222 -17.8222 -16.2553 -16.2553 -14.8262 -14.8262 -13.5229 -13.5229 -12.3342 -12.3342 -11.2501 -11.2501 -10.2613 -10.2613 -9.35946 -9.35946 -8.53694 -8.53694 -7.78674 -7.78674 -7.1025 -7.1025 -6.4784 -6.4784 -5.90916 -5.90916 -5.38993 -5.38993 -4.9163 -4.9163 -4.48425 -4.48425 -4.0901 -4.0901 -3.73047 -3.73047 -3.40231 -3.40231 -3.10278 -3.10278 -2.8293 -2.8293 -2.5795 -2.5795 -2.35118 -2.35118 -2.14235 -2.14235 -1.95112 -1.95112 -1.77579 -1.77579 -1.61475 -1.61475 -1.46654 -1.46654 -1.3298 -1.3298 -1.20329 -1.20329 -1.0859 -1.0859 -0.976623 -0.976623 -0.874601 -0.874601 -0.779109 -0.779109 -0.689568 -0.689568 -0.605546 -0.605546 -0.526761 -0.526761 -0.453066 -0.453066 -0.384432 -0.384432 -0.320923 -0.320923 -0.262658 -0.262658 -0.209769 -0.209769 -0.162358 -0.162358 -0.120452 -0.120452 -0.0839733 -0.0839733 -0.0527112 -0.0527112 -0.0263163 -0.0263163 -0.00430612 -0.00430612 0.0139158 0.0139158 0.0290347 0.0290347 0.0418018 0.0418018 0.0530215 0.0530215 0.063559 0.063559 0.07437 0.07437 0.0865523 0.0865523 0.101411 0.101411 0.120524 0.120524 0.145782 0.145782 0.179401 0.179401 0.223861 0.223861 0.281801 0.281801 0.355833 0.355833 0.448319 0.448319 0.561115 0.561115 0.695314 0.695314 0.85101 0.85101 1.02711 1.02711 1.2212 1.2212 1.42945 1.42945 1.6466 1.6466 1.86601 1.86601 2.07972 2.07972 2.27865 2.27865 2.45292 2.45292 2.59227 2.59227 2.68669 2.68669 2.72719 2.72719 2.70671 2.70671 2.62103 2.62103 2.46962 2.46962 2.25628 2.25628 1.98937 1.98937 1.68161 1.68161 1.3493 1.3493 1.01108 1.01108 0.686279 0.686279 0.392979 0.392979 0.146197 0.146197 -0.0437229 -0.0437229 -0.172157 -0.172157 -0.24055 -0.24055 -0.255964 -0.255964 -0.22989 -0.22989 -0.17648 -0.17648 -0.110498 -0.110498 -0.0453045 -0.0453045 0.00877652 0.00877652 0.0454714 0.0454714 0.0628118 0.0628118 0.0626539 0.0626539 0.049618 0.049618 0.0297049 0.0297049 0.008884 0.008884 -0.00807741 -0.00807741 -0.0183475 -0.0183475 -0.0212419 -0.0212419 -0.0179424 -0.0179424 -0.010851 -0.010851 -0.00277123 -0.00277123 0.00387133 0.00387133 0.00758465 0.00758465 0.00803084 0.00803084 0.00589442 0.00589442 0.00248011 0.00248011 -0.000807023 -0.000807023 -0.00292446 -0.00292446 -0.00345795 -0.00345795 -0.00263032 -0.00263032 -0.00108876 -0.00108876 0.000418718 0.000418718 0.00134048 0.00134048 0.00148436 0.00148436 0.00100778 0.00100778 0.000271808 0.000271808 -0.000354346 -0.000354346 -0.000646742 -0.000646742 -0.000582263 -0.000582263 -0.00029456 -0.00029456 2.66283e-05 2.66283e-05 0.000233909 0.000233909 0.000274504 0.000274504 0.000184881 0.000184881 4.64801e-05 4.64801e-05 -6.52115e-05 -6.52115e-05 -0.000112161 -0.000112161 -9.72833e-05 -9.72833e-05 -4.80617e-05 -4.80617e-05 4.44597e-06 4.44597e-06 3.94072e-05 3.94072e-05 4.96157e-05 4.96157e-05 3.8216e-05 3.8216e-05 1.40423e-05 1.40423e-05 -1.18223e-05 -1.18223e-05 -2.88179e-05 -2.88179e-05 -3.02063e-05 -3.02063e-05 -1.6277e-05 -1.6277e-05 4.96508e-06 4.96508e-06 2.14621e-05 2.14621e-05 2.39388e-05 2.39388e-05 1.17565e-05 1.17565e-05 -6.51168e-06 -6.51168e-06 -1.87158e-05 -1.87158e-05 -1.73486e-05 -1.73486e-05 -4.53594e-06 -4.53594e-06 9.86502e-06 9.86502e-06 1.56573e-05 1.56573e-05 9.64664e-06 9.64664e-06 -2.52972e-06 -2.52972e-06 -1.12533e-05 -1.12533e-05 -1.04544e-05 -1.04544e-05 -1.89474e-06 -1.89474e-06 6.92044e-06 6.92044e-06 9.1365e-06 9.1365e-06 3.87159e-06 3.87159e-06 -3.71038e-06 -3.71038e-06 -7.20788e-06 -7.20788e-06 -4.32693e-06 -4.32693e-06 1.69597e-06 1.69597e-06 5.42016e-06 5.42016e-06 4.02892e-06 4.02892e-06 -5.89293e-07 -5.89293e-07 -4.02101e-06 -4.02101e-06 -3.45232e-06 -3.45232e-06 6.52137e-08 6.52137e-08 3.01247e-06 3.01247e-06 2.83657e-06 2.83657e-06 1.24941e-07 1.24941e-07 -2.31172e-06 -2.31172e-06 -2.27867e-06 -2.27867e-06 -1.41453e-07 -1.41453e-07 1.82709e-06 1.82709e-06 1.80424e-06 1.80424e-06 7.78011e-08 7.78011e-08 -1.48445e-06 -1.48445e-06 -1.4094e-06 -1.4094e-06 1.48281e-08 1.48281e-08 1.23121e-06 1.23121e-06 1.08149e-06 1.08149e-06 -1.09483e-07 -1.09483e-07 -1.03255e-06 -1.03255e-06 -8.07832e-07 -8.07832e-07 1.92324e-07 1.92324e-07 8.66506e-07 8.66506e-07 5.78525e-07 5.78525e-07 -2.56478e-07 -2.56478e-07 -7.19934e-07 -7.19934e-07 -3.86772e-07 -3.86772e-07 2.9891e-07 2.9891e-07 5.85668e-07 5.85668e-07 2.28306e-07 2.28306e-07 -3.18921e-07 -3.18921e-07 -4.60586e-07 -4.60586e-07 -1.00582e-07 -1.00582e-07 3.17472e-07 3.17472e-07 3.44281e-07 3.44281e-07 1.98615e-09 1.98615e-09 -2.96866e-07 -2.96866e-07 -2.38077e-07 -2.38077e-07 6.88475e-08 6.88475e-08 2.60545e-07 2.60545e-07 1.44234e-07 1.44234e-07 -1.13589e-07 -1.13589e-07 -2.1288e-07 -2.1288e-07 -6.52711e-08 -6.52711e-08 1.34612e-07 1.34612e-07 1.5889e-07 1.5889e-07 3.35981e-09 3.35981e-09 -1.35225e-07 -1.35225e-07 -1.03862e-07 -1.03862e-07 4.01886e-08 4.01886e-08 1.19712e-07 1.19712e-07 5.28892e-08 5.28892e-08 -6.53206e-08 -6.53206e-08 -9.3176e-08 -9.3176e-08 -1.03484e-08 -1.03484e-08 7.34714e-08 7.34714e-08 6.11727e-08 6.11727e-08 -2.06147e-08 -2.06147e-08 -6.75778e-08 -6.75778e-08 -2.91766e-08 -2.91766e-08 3.85108e-08 3.85108e-08 5.18299e-08 5.18299e-08 1.9349e-09 1.9349e-09 -4.37356e-08 -4.37356e-08 -3.11554e-08 -3.11554e-08 1.71719e-08 1.71719e-08 3.85067e-08 3.85067e-08 1.04881e-08 1.04881e-08 -2.66162e-08 -2.66162e-08 -2.64524e-08 -2.64524e-08 6.05362e-09 6.05362e-09 2.6901e-08 2.6901e-08 1.18794e-08 1.18794e-08 -1.58906e-08 -1.58906e-08 -2.0322e-08 -2.0322e-08 1.15226e-09 1.15226e-09 1.83993e-08 1.83993e-08 1.03082e-08 1.03082e-08 -9.72194e-09 -9.72194e-09 -1.48602e-08 -1.48602e-08 -4.74816e-10 -4.74816e-10 1.26483e-08 1.26483e-08 7.90589e-09 7.90589e-09 -6.35735e-09 -6.35735e-09 -1.05885e-08 -1.05885e-08 -6.01387e-10 -6.01387e-10 8.86552e-09 8.86552e-09 5.58009e-09 5.58009e-09 -4.55208e-09 -4.55208e-09 -7.40987e-09 -7.40987e-09 -1.72347e-10 -1.72347e-10 6.34712e-09 6.34712e-09 3.6338e-09 3.6338e-09 -3.53778e-09 -3.53778e-09 -5.07011e-09 -5.07011e-09 3.55333e-10 3.55333e-10 4.59419e-09 4.59419e-09 2.11675e-09 2.11675e-09 -2.88169e-09 -2.88169e-09 -3.33591e-09 -3.33591e-09 7.82193e-10 7.82193e-10 3.29637e-09 3.29637e-09 9.93963e-10 9.93963e-10 -2.36059e-09 -2.36059e-09 -2.04171e-09 -2.04171e-09 1.03653e-09 1.03653e-09 2.28087e-09 2.28087e-09 2.13133e-10 2.13133e-10 -1.8752e-09 -1.8752e-09 -1.08467e-09 -1.08467e-09 1.10973e-09 1.10973e-09 1.4644e-09 1.4644e-09 -2.76245e-10 -2.76245e-10 -1.39773e-09 -1.39773e-09 -4.04546e-10 -4.04546e-10 1.02651e-09 1.02651e-09 8.1582e-10 8.1582e-10 -5.2281e-10 -5.2281e-10 -9.3995e-10 -9.3995e-10 3.74413e-11 3.74413e-11 8.30768e-10 8.30768e-10 3.28732e-10 3.28732e-10 -5.77988e-10 -5.77988e-10 -5.31842e-10 -5.31842e-10 2.75274e-10 2.75274e-10 5.7639e-10 5.7639e-10 1.69432e-12 1.69432e-12 -4.98599e-10 -4.98599e-10 -2.05644e-10 -2.05644e-10 3.48446e-10 3.48446e-10 3.18365e-10 3.18365e-10 -1.74885e-10 -1.74885e-10 -3.4496e-10 -3.4496e-10 1.63573e-11 1.63573e-11 3.05246e-10 3.05246e-10 1.03292e-10 1.03292e-10 -2.25129e-10 -2.25129e-10 -1.74582e-10 -1.74582e-10 1.29762e-10 1.29762e-10 1.99453e-10 1.99453e-10 -3.91981e-11 -3.91981e-11 -1.87181e-10 -1.87181e-10 -3.34985e-11 -3.34985e-11 1.50346e-10 1.50346e-10 8.2218e-11 8.2218e-11 -1.01603e-10 -1.01603e-10 -1.06547e-10 -1.06547e-10 5.15589e-11 5.15589e-11 1.09964e-10 1.09964e-10 -7.73684e-12 -7.73684e-12 -9.80028e-11 -9.80028e-11 -2.55904e-11 -2.55904e-11 7.67171e-11 7.67171e-11 4.69794e-11 4.69794e-11 -5.15993e-11 -5.15993e-11 -5.7096e-11 -5.7096e-11 2.69599e-11 2.69599e-11 5.79214e-11 5.79214e-11 -5.70423e-12 -5.70423e-12 -5.20375e-11 -5.20375e-11 -1.06042e-11 -1.06042e-11 4.20752e-11 4.20752e-11 2.15097e-11 2.15097e-11 -3.03477e-11 -3.03477e-11 -2.7356e-11 -2.7356e-11 1.86567e-11 1.86567e-11 2.89767e-11 2.89767e-11 -8.23612e-12 -8.23612e-12 -2.74281e-11 -2.74281e-11 -2.10312e-13 -2.10312e-13 2.3788e-11 2.3788e-11 6.41573e-12 6.41573e-12 -1.90212e-11 -1.90212e-11 -1.04353e-11 -1.04353e-11 1.39073e-11 1.39073e-11 1.25322e-11 1.25322e-11 -9.01563e-12 -9.01563e-12 -1.30794e-11 -1.30794e-11 4.71431e-12 4.71431e-12 1.24825e-11 1.24825e-11 -1.19866e-12 -1.19866e-12 -1.1127e-11 -1.1127e-11 -1.47074e-12 -1.47074e-12 9.34613e-12 9.34613e-12 3.32882e-12 3.32882e-12 -7.4051e-12 -7.4051e-12 -4.47051e-12 -4.47051e-12 5.499e-12 5.499e-12 5.02155e-12 5.02155e-12 -3.75798e-12 -3.75798e-12 -5.11653e-12 -5.11653e-12 2.2574e-12 2.2574e-12 4.8838e-12 4.8838e-12 -1.02958e-12 -1.02958e-12 -4.43638e-12 -4.43638e-12 7.55761e-14 7.55761e-14 3.8675e-12 3.8675e-12 6.24329e-13 6.24329e-13 -3.24955e-12 -3.24955e-12 -1.10201e-12 -1.10201e-12 2.63529e-12 2.63529e-12 1.39482e-12 1.39482e-12 -2.06035e-12 -2.06035e-12 -1.54083e-12 -1.54083e-12 1.54626e-12 1.54626e-12 1.57573e-12 1.57573e-12 -1.10365e-12 -1.10365e-12 -1.53094e-12 -1.53094e-12 7.35157e-13 7.35157e-13 1.43284e-12 1.43284e-12 -4.37951e-13 -4.37951e-13 -1.3026e-12 -1.3026e-12 2.05787e-13 2.05787e-13 1.1565e-12 1.1565e-12 -3.05887e-14 -3.05887e-14 -1.00651e-12 -1.00651e-12 -9.63974e-14 -9.63974e-14 8.60971e-13 8.60971e-13 1.83805e-13 1.83805e-13 -7.25267e-13 -7.25267e-13 -2.39645e-13 -2.39645e-13 6.02531e-13 6.02531e-13 2.71024e-13 2.71024e-13 -4.94199e-13 -4.94199e-13 -2.84024e-13 -2.84024e-13 4.00505e-13 4.00505e-13 2.83695e-13 2.83695e-13 -3.20876e-13 -3.20876e-13 -2.74114e-13 -2.74114e-13 2.54237e-13 2.54237e-13 2.58485e-13 2.58485e-13 -1.99243e-13 -1.99243e-13 -2.39264e-13 -2.39264e-13 1.5444e-13 1.5444e-13 2.18277e-13 2.18277e-13 -1.18383e-13 -1.18383e-13 -1.9684e-13 -1.9684e-13 8.97048e-14 8.97048e-14 1.75864e-13 1.75864e-13 -6.71596e-14 -6.71596e-14 -1.55946e-13 -1.55946e-13 4.96439e-14 4.96439e-14 1.37447e-13 1.37447e-13 -3.62021e-14 -3.62021e-14 -1.20551e-13 -1.20551e-13 2.60213e-14 2.60213e-14 1.05321e-13 1.05321e-13 -1.84215e-14 -1.84215e-14 -9.17349e-14 -9.17349e-14 1.28412e-14 1.28412e-14 7.97129e-14 7.97129e-14 -8.82303e-15 -8.82303e-15 -6.91438e-14 -6.91438e-14 5.9984e-15 5.9984e-15 5.98986e-14 5.98986e-14 -4.07359e-15 -4.07359e-15 -5.18423e-14 -5.18423e-14 2.81694e-15 2.81694e-15 4.48418e-14 4.48418e-14 -2.0476e-15 -2.0476e-15 -3.87704e-14 -3.87704e-14 1.62587e-15 1.62587e-15 3.35108e-14 3.35108e-14 -1.44503e-15 -1.44503e-15 -2.89568e-14 -2.89568e-14 1.42447e-15 1.42447e-15 2.50134e-14 2.50134e-14 -1.50413e-15 -1.50413e-15 -2.1597e-14 -2.1597e-14 1.63997e-15 1.63997e-15 1.86344e-14 1.86344e-14 -1.80028e-15 -1.80028e-15 -1.60625e-14 -1.60625e-14 1.96282e-15 1.96282e-15 1.38267e-14 1.38267e-14 -2.11249e-15 -2.11249e-15 -1.18802e-14 -1.18802e-14 2.23959e-15 2.23959e-15 1.01834e-14 1.01834e-14 -2.3384e-15 -2.3384e-15 -8.70244e-15 -8.70244e-15 2.4061e-15 2.4061e-15 7.40848e-15 7.40848e-15 -2.44202e-15 -2.44202e-15 -6.27722e-15 -6.27722e-15 2.44695e-15 2.44695e-15 5.288e-15 5.288e-15 -2.42274e-15 -2.42274e-15 -4.4233e-15 -4.4233e-15 2.3719e-15 2.3719e-15 3.66819e-15 3.66819e-15 -2.29738e-15 -2.29738e-15 -3.00995e-15 -3.00995e-15 2.20237e-15 2.20237e-15 2.43768e-15 2.43768e-15 -2.09016e-15 -2.09016e-15 -1.94195e-15 -1.94195e-15 1.96404e-15 1.96404e-15 1.51459e-15 1.51459e-15 -1.82722e-15 -1.82722e-15 -1.14843e-15 -1.14843e-15 1.68279e-15 1.68279e-15 8.37124e-16 8.37124e-16 -1.53366e-15 -1.53366e-15 -5.75003e-16 -5.75003e-16 1.38254e-15 1.38254e-15 3.56951e-16 3.56951e-16 -1.23191e-15 -1.23191e-15 -1.78298e-16 -1.78298e-16 1.08403e-15 1.08403e-15 3.47493e-17 3.47493e-17 -9.40886e-16 -9.40886e-16 7.76829e-17 7.76829e-17 8.04202e-16 8.04202e-16 -1.62719e-16 -1.62719e-16 -6.75437e-16 -6.75437e-16 2.23849e-16 2.23849e-16 5.55779e-16 5.55779e-16 -2.64348e-16 -2.64348e-16 -4.46142e-16 -4.46142e-16 2.87295e-16 2.87295e-16 3.47173e-16 3.47173e-16 -2.95574e-16 -2.95574e-16 -2.5926e-16 -2.5926e-16 2.91875e-16 2.91875e-16 1.82544e-16 1.82544e-16 -2.78691e-16 -2.78691e-16 -1.16933e-16 -1.16933e-16 2.58307e-16 2.58307e-16 6.2123e-17 6.2123e-17 -2.32799e-16 -2.32799e-16 -1.76179e-17 -1.76179e-17 2.04019e-16 2.04019e-16 -1.72424e-17 -1.72424e-17 -1.73596e-16 -1.73596e-16 4.32553e-17 4.32553e-17 1.42926e-16 1.42926e-16 -6.13248e-17 -6.13248e-17 -1.13174e-16 -1.13174e-16 7.2431e-17 7.2431e-17 8.52768e-17 8.52768e-17 -7.7598e-17 -7.7598e-17 -5.99472e-17 -5.99472e-17 7.78633e-17 7.78633e-17 3.76862e-17 3.76862e-17 -7.42481e-17 -7.42481e-17 -1.87969e-17 -1.87969e-17 6.77305e-17 6.77305e-17 3.40298e-18 3.40298e-18 -5.9221e-17 -5.9221e-17 8.53053e-18 8.53053e-18 4.95428e-17 4.95428e-17 -1.71727e-17 -1.71727e-17 -3.94157e-17 -3.94157e-17 2.28012e-17 2.28012e-17 2.94452e-17 2.94452e-17 -2.57754e-17 -2.57754e-17 -2.01161e-17 -2.01161e-17 2.65097e-17 2.65097e-17 1.17917e-17 1.17917e-17 -2.54478e-17 -2.54478e-17 -4.71712e-18 -4.71712e-18 2.30387e-17 2.30387e-17 -9.72983e-19 -9.72983e-19 -1.97152e-17 -1.97152e-17 5.2429e-18 5.2429e-18 1.58759e-17 1.58759e-17 -8.14157e-18 -8.14157e-18 -1.18711e-17 -1.18711e-17 9.78617e-18 9.78617e-18 7.99251e-18 7.99251e-18 -1.03446e-17 -1.03446e-17 -4.4672e-18 -4.4672e-18 1.00178e-17 1.00178e-17 1.45599e-18 1.45599e-18 -9.02253e-18 -9.02253e-18 9.44753e-19 9.44753e-19 7.57608e-18 7.57608e-18 -2.69784e-18 -2.69784e-18 -5.88271e-18 -5.88271e-18 3.81734e-18 3.81734e-18 4.123e-18 4.123e-18 -4.35876e-18 -4.35876e-18 -2.44619e-18 -2.44619e-18 4.40808e-18 4.40808e-18 9.65531e-19 9.65531e-19 -4.07041