# vtk DataFile Version 3.0
#This file was generated by the deal.II library on 2020/8/11 at 22:18:39
ASCII
DATASET UNSTRUCTURED_GRID

POINTS 4096 double
0.5 0 0
0.743896 0 0
0.743896 0 0
0.987793 0 0
0.987793 0 0
1.23169 0 0
1.23169 0 0
1.47559 0 0
1.47559 0 0
1.71948 0 0
1.71948 0 0
1.96338 0 0
1.96338 0 0
2.20728 0 0
2.20728 0 0
2.45117 0 0
2.45117 0 0
2.69507 0 0
2.69507 0 0
2.93896 0 0
2.93896 0 0
3.18286 0 0
3.18286 0 0
3.42676 0 0
3.42676 0 0
3.67065 0 0
3.67065 0 0
3.91455 0 0
3.91455 0 0
4.15845 0 0
4.15845 0 0
4.40234 0 0
4.40234 0 0
4.64624 0 0
4.64624 0 0
4.89014 0 0
4.89014 0 0
5.13403 0 0
5.13403 0 0
5.37793 0 0
5.37793 0 0
5.62183 0 0
5.62183 0 0
5.86572 0 0
5.86572 0 0
6.10962 0 0
6.10962 0 0
6.35352 0 0
6.35352 0 0
6.59741 0 0
6.59741 0 0
6.84131 0 0
6.84131 0 0
7.08521 0 0
7.08521 0 0
7.3291 0 0
7.3291 0 0
7.573 0 0
7.573 0 0
7.81689 0 0
7.81689 0 0
8.06079 0 0
8.06079 0 0
8.30469 0 0
8.30469 0 0
8.54858 0 0
8.54858 0 0
8.79248 0 0
8.79248 0 0
9.03638 0 0
9.03638 0 0
9.28027 0 0
9.28027 0 0
9.52417 0 0
9.52417 0 0
9.76807 0 0
9.76807 0 0
10.012 0 0
10.012 0 0
10.2559 0 0
10.2559 0 0
10.4998 0 0
10.4998 0 0
10.7437 0 0
10.7437 0 0
10.9875 0 0
10.9875 0 0
11.2314 0 0
11.2314 0 0
11.4753 0 0
11.4753 0 0
11.7192 0 0
11.7192 0 0
11.9631 0 0
11.9631 0 0
12.207 0 0
12.207 0 0
12.4509 0 0
12.4509 0 0
12.6948 0 0
12.6948 0 0
12.9387 0 0
12.9387 0 0
13.1826 0 0
13.1826 0 0
13.4265 0 0
13.4265 0 0
13.6704 0 0
13.6704 0 0
13.9143 0 0
13.9143 0 0
14.1582 0 0
14.1582 0 0
14.4021 0 0
14.4021 0 0
14.646 0 0
14.646 0 0
14.8899 0 0
14.8899 0 0
15.1338 0 0
15.1338 0 0
15.3777 0 0
15.3777 0 0
15.6216 0 0
15.6216 0 0
15.8655 0 0
15.8655 0 0
16.1094 0 0
16.1094 0 0
16.3533 0 0
16.3533 0 0
16.5972 0 0
16.5972 0 0
16.8411 0 0
16.8411 0 0
17.085 0 0
17.085 0 0
17.3289 0 0
17.3289 0 0
17.5728 0 0
17.5728 0 0
17.8167 0 0
17.8167 0 0
18.0605 0 0
18.0605 0 0
18.3044 0 0
18.3044 0 0
18.5483 0 0
18.5483 0 0
18.7922 0 0
18.7922 0 0
19.0361 0 0
19.0361 0 0
19.28 0 0
19.28 0 0
19.5239 0 0
19.5239 0 0
19.7678 0 0
19.7678 0 0
20.0117 0 0
20.0117 0 0
20.2556 0 0
20.2556 0 0
20.4995 0 0
20.4995 0 0
20.7434 0 0
20.7434 0 0
20.9873 0 0
20.9873 0 0
21.2312 0 0
21.2312 0 0
21.4751 0 0
21.4751 0 0
21.719 0 0
21.719 0 0
21.9629 0 0
21.9629 0 0
22.2068 0 0
22.2068 0 0
22.4507 0 0
22.4507 0 0
22.6946 0 0
22.6946 0 0
22.9385 0 0
22.9385 0 0
23.1824 0 0
23.1824 0 0
23.4263 0 0
23.4263 0 0
23.6702 0 0
23.6702 0 0
23.9141 0 0
23.9141 0 0
24.158 0 0
24.158 0 0
24.4019 0 0
24.4019 0 0
24.6458 0 0
24.6458 0 0
24.8896 0 0
24.8896 0 0
25.1335 0 0
25.1335 0 0
25.3774 0 0
25.3774 0 0
25.6213 0 0
25.6213 0 0
25.8652 0 0
25.8652 0 0
26.1091 0 0
26.1091 0 0
26.353 0 0
26.353 0 0
26.5969 0 0
26.5969 0 0
26.8408 0 0
26.8408 0 0
27.0847 0 0
27.0847 0 0
27.3286 0 0
27.3286 0 0
27.5725 0 0
27.5725 0 0
27.8164 0 0
27.8164 0 0
28.0603 0 0
28.0603 0 0
28.3042 0 0
28.3042 0 0
28.5481 0 0
28.5481 0 0
28.792 0 0
28.792 0 0
29.0359 0 0
29.0359 0 0
29.2798 0 0
29.2798 0 0
29.5237 0 0
29.5237 0 0
29.7676 0 0
29.7676 0 0
30.0115 0 0
30.0115 0 0
30.2554 0 0
30.2554 0 0
30.4993 0 0
30.4993 0 0
30.7432 0 0
30.7432 0 0
30.9871 0 0
30.9871 0 0
31.231 0 0
31.231 0 0
31.4749 0 0
31.4749 0 0
31.7188 0 0
31.7188 0 0
31.9626 0 0
31.9626 0 0
32.2065 0 0
32.2065 0 0
32.4504 0 0
32.4504 0 0
32.6943 0 0
32.6943 0 0
32.9382 0 0
32.9382 0 0
33.1821 0 0
33.1821 0 0
33.426 0 0
33.426 0 0
33.6699 0 0
33.6699 0 0
33.9138 0 0
33.9138 0 0
34.1577 0 0
34.1577 0 0
34.4016 0 0
34.4016 0 0
34.6455 0 0
34.6455 0 0
34.8894 0 0
34.8894 0 0
35.1333 0 0
35.1333 0 0
35.3772 0 0
35.3772 0 0
35.6211 0 0
35.6211 0 0
35.865 0 0
35.865 0 0
36.1089 0 0
36.1089 0 0
36.3528 0 0
36.3528 0 0
36.5967 0 0
36.5967 0 0
36.8406 0 0
36.8406 0 0
37.0845 0 0
37.0845 0 0
37.3284 0 0
37.3284 0 0
37.5723 0 0
37.5723 0 0
37.8162 0 0
37.8162 0 0
38.0601 0 0
38.0601 0 0
38.304 0 0
38.304 0 0
38.5479 0 0
38.5479 0 0
38.7917 0 0
38.7917 0 0
39.0356 0 0
39.0356 0 0
39.2795 0 0
39.2795 0 0
39.5234 0 0
39.5234 0 0
39.7673 0 0
39.7673 0 0
40.0112 0 0
40.0112 0 0
40.2551 0 0
40.2551 0 0
40.499 0 0
40.499 0 0
40.7429 0 0
40.7429 0 0
40.9868 0 0
40.9868 0 0
41.2307 0 0
41.2307 0 0
41.4746 0 0
41.4746 0 0
41.7185 0 0
41.7185 0 0
41.9624 0 0
41.9624 0 0
42.2063 0 0
42.2063 0 0
42.4502 0 0
42.4502 0 0
42.6941 0 0
42.6941 0 0
42.938 0 0
42.938 0 0
43.1819 0 0
43.1819 0 0
43.4258 0 0
43.4258 0 0
43.6697 0 0
43.6697 0 0
43.9136 0 0
43.9136 0 0
44.1575 0 0
44.1575 0 0
44.4014 0 0
44.4014 0 0
44.6453 0 0
44.6453 0 0
44.8892 0 0
44.8892 0 0
45.1331 0 0
45.1331 0 0
45.377 0 0
45.377 0 0
45.6208 0 0
45.6208 0 0
45.8647 0 0
45.8647 0 0
46.1086 0 0
46.1086 0 0
46.3525 0 0
46.3525 0 0
46.5964 0 0
46.5964 0 0
46.8403 0 0
46.8403 0 0
47.0842 0 0
47.0842 0 0
47.3281 0 0
47.3281 0 0
47.572 0 0
47.572 0 0
47.8159 0 0
47.8159 0 0
48.0598 0 0
48.0598 0 0
48.3037 0 0
48.3037 0 0
48.5476 0 0
48.5476 0 0
48.7915 0 0
48.7915 0 0
49.0354 0 0
49.0354 0 0
49.2793 0 0
49.2793 0 0
49.5232 0 0
49.5232 0 0
49.7671 0 0
49.7671 0 0
50.011 0 0
50.011 0 0
50.2549 0 0
50.2549 0 0
50.4988 0 0
50.4988 0 0
50.7427 0 0
50.7427 0 0
50.9866 0 0
50.9866 0 0
51.2305 0 0
51.2305 0 0
51.4744 0 0
51.4744 0 0
51.7183 0 0
51.7183 0 0
51.9622 0 0
51.9622 0 0
52.2061 0 0
52.2061 0 0
52.45 0 0
52.45 0 0
52.6938 0 0
52.6938 0 0
52.9377 0 0
52.9377 0 0
53.1816 0 0
53.1816 0 0
53.4255 0 0
53.4255 0 0
53.6694 0 0
53.6694 0 0
53.9133 0 0
53.9133 0 0
54.1572 0 0
54.1572 0 0
54.4011 0 0
54.4011 0 0
54.645 0 0
54.645 0 0
54.8889 0 0
54.8889 0 0
55.1328 0 0
55.1328 0 0
55.3767 0 0
55.3767 0 0
55.6206 0 0
55.6206 0 0
55.8645 0 0
55.8645 0 0
56.1084 0 0
56.1084 0 0
56.3523 0 0
56.3523 0 0
56.5962 0 0
56.5962 0 0
56.8401 0 0
56.8401 0 0
57.084 0 0
57.084 0 0
57.3279 0 0
57.3279 0 0
57.5718 0 0
57.5718 0 0
57.8157 0 0
57.8157 0 0
58.0596 0 0
58.0596 0 0
58.3035 0 0
58.3035 0 0
58.5474 0 0
58.5474 0 0
58.7913 0 0
58.7913 0 0
59.0352 0 0
59.0352 0 0
59.2791 0 0
59.2791 0 0
59.5229 0 0
59.5229 0 0
59.7668 0 0
59.7668 0 0
60.0107 0 0
60.0107 0 0
60.2546 0 0
60.2546 0 0
60.4985 0 0
60.4985 0 0
60.7424 0 0
60.7424 0 0
60.9863 0 0
60.9863 0 0
61.2302 0 0
61.2302 0 0
61.4741 0 0
61.4741 0 0
61.718 0 0
61.718 0 0
61.9619 0 0
61.9619 0 0
62.2058 0 0
62.2058 0 0
62.4497 0 0
62.4497 0 0
62.6936 0 0
62.6936 0 0
62.9375 0 0
62.9375 0 0
63.1814 0 0
63.1814 0 0
63.4253 0 0
63.4253 0 0
63.6692 0 0
63.6692 0 0
63.9131 0 0
63.9131 0 0
64.157 0 0
64.157 0 0
64.4009 0 0
64.4009 0 0
64.6448 0 0
64.6448 0 0
64.8887 0 0
64.8887 0 0
65.1326 0 0
65.1326 0 0
65.3765 0 0
65.3765 0 0
65.6204 0 0
65.6204 0 0
65.8643 0 0
65.8643 0 0
66.1082 0 0
66.1082 0 0
66.3521 0 0
66.3521 0 0
66.5959 0 0
66.5959 0 0
66.8398 0 0
66.8398 0 0
67.0837 0 0
67.0837 0 0
67.3276 0 0
67.3276 0 0
67.5715 0 0
67.5715 0 0
67.8154 0 0
67.8154 0 0
68.0593 0 0
68.0593 0 0
68.3032 0 0
68.3032 0 0
68.5471 0 0
68.5471 0 0
68.791 0 0
68.791 0 0
69.0349 0 0
69.0349 0 0
69.2788 0 0
69.2788 0 0
69.5227 0 0
69.5227 0 0
69.7666 0 0
69.7666 0 0
70.0105 0 0
70.0105 0 0
70.2544 0 0
70.2544 0 0
70.4983 0 0
70.4983 0 0
70.7422 0 0
70.7422 0 0
70.9861 0 0
70.9861 0 0
71.23 0 0
71.23 0 0
71.4739 0 0
71.4739 0 0
71.7178 0 0
71.7178 0 0
71.9617 0 0
71.9617 0 0
72.2056 0 0
72.2056 0 0
72.4495 0 0
72.4495 0 0
72.6934 0 0
72.6934 0 0
72.9373 0 0
72.9373 0 0
73.1812 0 0
73.1812 0 0
73.425 0 0
73.425 0 0
73.6689 0 0
73.6689 0 0
73.9128 0 0
73.9128 0 0
74.1567 0 0
74.1567 0 0
74.4006 0 0
74.4006 0 0
74.6445 0 0
74.6445 0 0
74.8884 0 0
74.8884 0 0
75.1323 0 0
75.1323 0 0
75.3762 0 0
75.3762 0 0
75.6201 0 0
75.6201 0 0
75.864 0 0
75.864 0 0
76.1079 0 0
76.1079 0 0
76.3518 0 0
76.3518 0 0
76.5957 0 0
76.5957 0 0
76.8396 0 0
76.8396 0 0
77.0835 0 0
77.0835 0 0
77.3274 0 0
77.3274 0 0
77.5713 0 0
77.5713 0 0
77.8152 0 0
77.8152 0 0
78.0591 0 0
78.0591 0 0
78.303 0 0
78.303 0 0
78.5469 0 0
78.5469 0 0
78.7908 0 0
78.7908 0 0
79.0347 0 0
79.0347 0 0
79.2786 0 0
79.2786 0 0
79.5225 0 0
79.5225 0 0
79.7664 0 0
79.7664 0 0
80.0103 0 0
80.0103 0 0
80.2542 0 0
80.2542 0 0
80.498 0 0
80.498 0 0
80.7419 0 0
80.7419 0 0
80.9858 0 0
80.9858 0 0
81.2297 0 0
81.2297 0 0
81.4736 0 0
81.4736 0 0
81.7175 0 0
81.7175 0 0
81.9614 0 0
81.9614 0 0
82.2053 0 0
82.2053 0 0
82.4492 0 0
82.4492 0 0
82.6931 0 0
82.6931 0 0
82.937 0 0
82.937 0 0
83.1809 0 0
83.1809 0 0
83.4248 0 0
83.4248 0 0
83.6687 0 0
83.6687 0 0
83.9126 0 0
83.9126 0 0
84.1565 0 0
84.1565 0 0
84.4004 0 0
84.4004 0 0
84.6443 0 0
84.6443 0 0
84.8882 0 0
84.8882 0 0
85.1321 0 0
85.1321 0 0
85.376 0 0
85.376 0 0
85.6199 0 0
85.6199 0 0
85.8638 0 0
85.8638 0 0
86.1077 0 0
86.1077 0 0
86.3516 0 0
86.3516 0 0
86.5955 0 0
86.5955 0 0
86.8394 0 0
86.8394 0 0
87.0833 0 0
87.0833 0 0
87.3271 0 0
87.3271 0 0
87.571 0 0
87.571 0 0
87.8149 0 0
87.8149 0 0
88.0588 0 0
88.0588 0 0
88.3027 0 0
88.3027 0 0
88.5466 0 0
88.5466 0 0
88.7905 0 0
88.7905 0 0
89.0344 0 0
89.0344 0 0
89.2783 0 0
89.2783 0 0
89.5222 0 0
89.5222 0 0
89.7661 0 0
89.7661 0 0
90.01 0 0
90.01 0 0
90.2539 0 0
90.2539 0 0
90.4978 0 0
90.4978 0 0
90.7417 0 0
90.7417 0 0
90.9856 0 0
90.9856 0 0
91.2295 0 0
91.2295 0 0
91.4734 0 0
91.4734 0 0
91.7173 0 0
91.7173 0 0
91.9612 0 0
91.9612 0 0
92.2051 0 0
92.2051 0 0
92.449 0 0
92.449 0 0
92.6929 0 0
92.6929 0 0
92.9368 0 0
92.9368 0 0
93.1807 0 0
93.1807 0 0
93.4246 0 0
93.4246 0 0
93.6685 0 0
93.6685 0 0
93.9124 0 0
93.9124 0 0
94.1562 0 0
94.1562 0 0
94.4001 0 0
94.4001 0 0
94.644 0 0
94.644 0 0
94.8879 0 0
94.8879 0 0
95.1318 0 0
95.1318 0 0
95.3757 0 0
95.3757 0 0
95.6196 0 0
95.6196 0 0
95.8635 0 0
95.8635 0 0
96.1074 0 0
96.1074 0 0
96.3513 0 0
96.3513 0 0
96.5952 0 0
96.5952 0 0
96.8391 0 0
96.8391 0 0
97.083 0 0
97.083 0 0
97.3269 0 0
97.3269 0 0
97.5708 0 0
97.5708 0 0
97.8147 0 0
97.8147 0 0
98.0586 0 0
98.0586 0 0
98.3025 0 0
98.3025 0 0
98.5464 0 0
98.5464 0 0
98.7903 0 0
98.7903 0 0
99.0342 0 0
99.0342 0 0
99.2781 0 0
99.2781 0 0
99.522 0 0
99.522 0 0
99.7659 0 0
99.7659 0 0
100.01 0 0
100.01 0 0
100.254 0 0
100.254 0 0
100.498 0 0
100.498 0 0
100.741 0 0
100.741 0 0
100.985 0 0
100.985 0 0
101.229 0 0
101.229 0 0
101.473 0 0
[...]
POINT_DATA 4096
SCALARS solution_0 double 1
LOOKUP_TABLE default
1.79606 -2.88505e+15 -2.88505e+15 -1.13685e+15 -1.13685e+15 -7.41995e+14 -7.41995e+14 -5.48472e+14 -5.48472e+14 -4.29213e+14 -4.29213e+14 -3.47082e+14 -3.47082e+14 -2.86713e+14 -2.86713e+14 -2.40418e+14 -2.40418e+14 -2.03848e+14 -2.03848e+14 -1.74326e+14 -1.74326e+14 -1.50097e+14 -1.50097e+14 -1.29953e+14 -1.29953e+14 -1.1303e+14 -1.1303e+14 -9.86916e+13 -9.86916e+13 -8.6458e+13 -8.6458e+13 -7.59576e+13 -7.59576e+13 -6.68994e+13 -6.68994e+13 -5.9051e+13 -5.9051e+13 -5.22252e+13 -5.22252e+13 -4.62689e+13 -4.62689e+13 -4.10562e+13 -4.10562e+13 -3.64824e+13 -3.64824e+13 -3.24598e+13 -3.24598e+13 -2.89147e+13 -2.89147e+13 -2.57843e+13 -2.57843e+13 -2.30156e+13 -2.30156e+13 -2.05629e+13 -2.05629e+13 -1.83871e+13 -1.83871e+13 -1.64543e+13 -1.64543e+13 -1.47355e+13 -1.47355e+13 -1.32051e+13 -1.32051e+13 -1.18412e+13 -1.18412e+13 -1.06245e+13 -1.06245e+13 -9.53809e+12 -9.53809e+12 -8.56729e+12 -8.56729e+12 -7.69911e+12 -7.69911e+12 -6.92215e+12 -6.92215e+12 -6.22634e+12 -6.22634e+12 -5.60281e+12 -5.60281e+12 -5.04373e+12 -5.04373e+12 -4.54215e+12 -4.54215e+12 -4.09192e+12 -4.09192e+12 -3.68757e+12 -3.68757e+12 -3.32426e+12 -3.32426e+12 -2.99768e+12 -2.99768e+12 -2.70398e+12 -2.70398e+12 -2.43975e+12 -2.43975e+12 -2.20193e+12 -2.20193e+12 -1.98782e+12 -1.98782e+12 -1.79497e+12 -1.79497e+12 -1.62122e+12 -1.62122e+12 -1.46463e+12 -1.46463e+12 -1.32345e+12 -1.32345e+12 -1.19613e+12 -1.19613e+12 -1.08129e+12 -1.08129e+12 -9.77664e+11 -9.77664e+11 -8.84138e+11 -8.84138e+11 -7.99705e+11 -7.99705e+11 -7.23464e+11 -7.23464e+11 -6.54603e+11 -6.54603e+11 -5.92395e+11 -5.92395e+11 -5.36184e+11 -5.36184e+11 -4.85382e+11 -4.85382e+11 -4.39459e+11 -4.39459e+11 -3.97939e+11 -3.97939e+11 -3.60392e+11 -3.60392e+11 -3.26433e+11 -3.26433e+11 -2.95713e+11 -2.95713e+11 -2.67918e+11 -2.67918e+11 -2.42766e+11 -2.42766e+11 -2.20001e+11 -2.20001e+11 -1.99395e+11 -1.99395e+11 -1.8074e+11 -1.8074e+11 -1.63848e+11 -1.63848e+11 -1.48551e+11 -1.48551e+11 -1.34697e+11 -1.34697e+11 -1.22147e+11 -1.22147e+11 -1.10777e+11 -1.10777e+11 -1.00475e+11 -1.00475e+11 -9.11405e+10 -9.11405e+10 -8.26806e+10 -8.26806e+10 -7.50126e+10 -7.50126e+10 -6.80618e+10 -6.80618e+10 -6.17604e+10 -6.17604e+10 -5.60471e+10 -5.60471e+10 -5.08665e+10 -5.08665e+10 -4.61684e+10 -4.61684e+10 -4.19075e+10 -4.19075e+10 -3.80428e+10 -3.80428e+10 -3.4537e+10 -3.4537e+10 -3.13566e+10 -3.13566e+10 -2.84711e+10 -2.84711e+10 -2.5853e+10 -2.5853e+10 -2.34772e+10 -2.34772e+10 -2.13211e+10 -2.13211e+10 -1.93643e+10 -1.93643e+10 -1.75883e+10 -1.75883e+10 -1.59761e+10 -1.59761e+10 -1.45126e+10 -1.45126e+10 -1.3184e+10 -1.3184e+10 -1.19777e+10 -1.19777e+10 -1.08824e+10 -1.08824e+10 -9.88779e+09 -9.88779e+09 -8.98461e+09 -8.98461e+09 -8.16438e+09 -8.16438e+09 -7.41942e+09 -7.41942e+09 -6.74279e+09 -6.74279e+09 -6.12818e+09 -6.12818e+09 -5.56988e+09 -5.56988e+09 -5.06269e+09 -5.06269e+09 -4.60191e+09 -4.60191e+09 -4.18326e+09 -4.18326e+09 -3.80288e+09 -3.80288e+09 -3.45725e+09 -3.45725e+09 -3.14317e+09 -3.14317e+09 -2.85776e+09 -2.85776e+09 -2.59837e+09 -2.59837e+09 -2.36263e+09 -2.36263e+09 -2.14837e+09 -2.14837e+09 -1.95362e+09 -1.95362e+09 -1.77659e+09 -1.77659e+09 -1.61568e+09 -1.61568e+09 -1.46939e+09 -1.46939e+09 -1.3364e+09 -1.3364e+09 -1.2155e+09 -1.2155e+09 -1.10557e+09 -1.10557e+09 -1.00563e+09 -1.00563e+09 -9.14749e+08 -9.14749e+08 -8.32113e+08 -8.32113e+08 -7.5697e+08 -7.5697e+08 -6.88636e+08 -6.88636e+08 -6.26492e+08 -6.26492e+08 -5.69975e+08 -5.69975e+08 -5.18575e+08 -5.18575e+08 -4.71824e+08 -4.71824e+08 -4.29303e+08 -4.29303e+08 -3.90626e+08 -3.90626e+08 -3.55444e+08 -3.55444e+08 -3.23441e+08 -3.23441e+08 -2.94329e+08 -2.94329e+08 -2.67845e+08 -2.67845e+08 -2.43751e+08 -2.43751e+08 -2.21831e+08 -2.21831e+08 -2.01888e+08 -2.01888e+08 -1.83743e+08 -1.83743e+08 -1.67233e+08 -1.67233e+08 -1.52212e+08 -1.52212e+08 -1.38543e+08 -1.38543e+08 -1.26105e+08 -1.26105e+08 -1.14787e+08 -1.14787e+08 -1.04487e+08 -1.04487e+08 -9.5114e+07 -9.5114e+07 -8.6584e+07 -8.6584e+07 -7.88209e+07 -7.88209e+07 -7.17557e+07 -7.17557e+07 -6.53253e+07 -6.53253e+07 -5.94727e+07 -5.94727e+07 -5.41456e+07 -5.41456e+07 -4.92969e+07 -4.92969e+07 -4.48834e+07 -4.48834e+07 -4.0866e+07 -4.0866e+07 -3.72091e+07 -3.72091e+07 -3.38801e+07 -3.38801e+07 -3.08496e+07 -3.08496e+07 -2.80909e+07 -2.80909e+07 -2.55793e+07 -2.55793e+07 -2.32929e+07 -2.32929e+07 -2.12112e+07 -2.12112e+07 -1.9316e+07 -1.9316e+07 -1.75905e+07 -1.75905e+07 -1.60194e+07 -1.60194e+07 -1.4589e+07 -1.4589e+07 -1.32865e+07 -1.32865e+07 -1.21006e+07 -1.21006e+07 -1.10207e+07 -1.10207e+07 -1.00374e+07 -1.00374e+07 -9.14204e+06 -9.14204e+06 -8.32667e+06 -8.32667e+06 -7.58417e+06 -7.58417e+06 -6.908e+06 -6.908e+06 -6.29222e+06 -6.29222e+06 -5.73144e+06 -5.73144e+06 -5.22074e+06 -5.22074e+06 -4.75562e+06 -4.75562e+06 -4.33201e+06 -4.33201e+06 -3.94621e+06 -3.94621e+06 -3.59482e+06 -3.59482e+06 -3.27478e+06 -3.27478e+06 -2.98328e+06 -2.98328e+06 -2.71777e+06 -2.71777e+06 -2.47593e+06 -2.47593e+06 -2.25565e+06 -2.25565e+06 -2.055e+06 -2.055e+06 -1.87223e+06 -1.87223e+06 -1.70574e+06 -1.70574e+06 -1.55408e+06 -1.55408e+06 -1.41592e+06 -1.41592e+06 -1.29007e+06 -1.29007e+06 -1.17542e+06 -1.17542e+06 -1.07098e+06 -1.07098e+06 -975826 -975826 -889143 -889143 -810171 -810171 -738224 -738224 -672676 -672676 -612956 -612956 -558546 -558546 -508973 -508973 -463805 -463805 -422652 -422652 -385155 -385155 -350990 -350990 -319859 -319859 -291494 -291494 -265647 -265647 -242095 -242095 -220634 -220634 -201078 -201078 -183257 -183257 -167018 -167018 -152220 -152220 -138734 -138734 -126445 -126445 -115246 -115246 -105040 -105040 -95738.6 -95738.6 -87262 -87262 -79536.8 -79536.8 -72496.4 -72496.4 -66079.9 -66079.9 -60232 -60232 -54902.2 -54902.2 -50044.5 -50044.5 -45617.2 -45617.2 -41582 -41582 -37904.1 -37904.1 -34551.9 -34551.9 -31496.5 -31496.5 -28711.6 -28711.6 -26173.2 -26173.2 -23859.4 -23859.4 -21750.4 -21750.4 -19828 -19828 -18075.8 -18075.8 -16478.5 -16478.5 -15022.5 -15022.5 -13695.3 -13695.3 -12485.5 -12485.5 -11382.6 -11382.6 -10377.3 -10377.3 -9460.84 -9460.84 -8625.41 -8625.41 -7863.82 -7863.82 -7169.54 -7169.54 -6536.61 -6536.61 -5959.62 -5959.62 -5433.6 -5433.6 -4954.06 -4954.06 -4516.87 -4516.87 -4118.31 -4118.31 -3754.94 -3754.94 -3423.67 -3423.67 -3121.65 -3121.65 -2846.29 -2846.29 -2595.25 -2595.25 -2366.37 -2366.37 -2157.69 -2157.69 -1967.43 -1967.43 -1793.96 -1793.96 -1635.8 -1635.8 -1491.59 -1491.59 -1360.11 -1360.11 -1240.23 -1240.23 -1130.92 -1130.92 -1031.26 -1031.26 -940.383 -940.383 -857.523 -857.523 -781.97 -781.97 -713.079 -713.079 -650.262 -650.262 -592.983 -592.983 -540.754 -540.754 -493.129 -493.129 -449.701 -449.701 -410.101 -410.101 -373.991 -373.991 -341.062 -341.062 -311.035 -311.035 -283.654 -283.654 -258.685 -258.685 -235.916 -235.916 -215.152 -215.152 -196.217 -196.217 -178.949 -178.949 -163.203 -163.203 -148.843 -148.843 -135.747 -135.747 -123.804 -123.804 -112.913 -112.913 -102.981 -102.981 -93.9227 -93.9227 -85.6619 -85.6619 -78.1281 -78.1281 -71.2574 -71.2574 -64.9913 -64.9913 -59.2766 -59.2766 -54.0648 -54.0648 -49.3115 -49.3115 -44.9763 -44.9763 -41.0226 -41.0226 -37.4166 -37.4166 -34.1278 -34.1278 -31.1283 -31.1283 -28.3926 -28.3926 -25.8974 -25.8974 -23.6217 -23.6217 -21.5461 -21.5461 -19.6529 -19.6529 -17.9262 -17.9262 -16.3514 -16.3514 -14.9149 -14.9149 -13.6047 -13.6047 -12.4097 -12.4097 -11.3197 -11.3197 -10.3255 -10.3255 -9.41871 -9.41871 -8.59157 -8.59157 -7.8371 -7.8371 -7.14891 -7.14891 -6.52117 -6.52117 -5.94857 -5.94857 -5.42624 -5.42624 -4.94975 -4.94975 -4.51506 -4.51506 -4.11847 -4.11847 -3.75661 -3.75661 -3.42638 -3.42638 -3.12496 -3.12496 -2.84975 -2.84975 -2.59837 -2.59837 -2.36862 -2.36862 -2.15849 -2.15849 -1.96611 -1.96611 -1.78975 -1.78975 -1.62782 -1.62782 -1.47886 -1.47886 -1.34149 -1.34149 -1.21449 -1.21449 -1.09672 -1.09672 -0.987186 -0.987186 -0.88501 -0.88501 -0.789447 -0.789447 -0.699893 -0.699893 -0.615889 -0.615889 -0.537117 -0.537117 -0.463393 -0.463393 -0.394654 -0.394654 -0.330932 -0.330932 -0.272323 -0.272323 -0.218947 -0.218947 -0.170908 -0.170908 -0.128254 -0.128254 -0.090937 -0.090937 -0.0587904 -0.0587904 -0.0315128 -0.0315128 -0.00866888 -0.00866888 0.0102986 0.0102986 0.0260482 0.0260482 0.0393185 0.0393185 0.0509134 0.0509134 0.0617016 0.0617016 0.0726355 0.0726355 0.0847905 0.0847905 0.0994187 0.0994187 0.118006 0.118006 0.142318 0.142318 0.174412 0.174412 0.21661 0.21661 0.271401 0.271401 0.341297 0.341297 0.428629 0.428629 0.535306 0.535306 0.662561 0.662561 0.810719 0.810719 0.978987 0.978987 1.1653 1.1653 1.36622 1.36622 1.57693 1.57693 1.79123 1.79123 2.00162 2.00162 2.19954 2.19954 2.37558 2.37558 2.51993 2.51993 2.62287 2.62287 2.67553 2.67553 2.67064 2.67064 2.60344 2.60344 2.47246 2.47246 2.28018 2.28018 2.03339 2.03339 1.74313 1.74313 1.42409 1.42409 1.09363 1.09363 0.770282 0.770282 0.472005 0.472005 0.214423 0.214423 0.00918068 0.00918068 -0.137251 -0.137251 -0.224159 -0.224159 -0.25645 -0.25645 -0.243778 -0.243778 -0.199055 -0.199055 -0.136576 -0.136576 -0.0700492 -0.0700492 -0.0108516 -0.0108516 0.033216 0.033216 0.058495 0.058495 0.0653071 0.0653071 0.0571574 0.0571574 0.0395068 0.0395068 0.0183855 0.0183855 -0.00087217 -0.00087217 -0.0145482 -0.0145482 -0.0209819 -0.0209819 -0.0205101 -0.0205101 -0.014991 -0.014991 -0.00707197 -0.00707197 0.000599987 0.000599987 0.00603502 0.00603502 0.00828468 0.00828468 0.00749251 0.00749251 0.0046413 0.0046413 0.00110534 0.00110534 -0.00183803 -0.00183803 -0.00338563 -0.00338563 -0.00337151 -0.00337151 -0.00219261 -0.00219261 -0.000556796 -0.000556796 0.00083187 0.00083187 0.00152716 0.00152716 0.00144972 0.00144972 0.000834679 0.000834679 6.75734e-05 6.75734e-05 -0.000504524 -0.000504524 -0.000704349 -0.000704349 -0.000555262 -0.000555262 -0.000220027 -0.000220027 0.000105301 0.000105301 0.000285101 0.000285101 0.000286603 0.000286603 0.000164739 0.000164739 1.15841e-05 1.15841e-05 -9.63167e-05 -9.63167e-05 -0.000127377 -0.000127377 -9.42458e-05 -9.42458e-05 -3.28999e-05 -3.28999e-05 2.15912e-05 2.15912e-05 4.97873e-05 4.97873e-05 4.97366e-05 4.97366e-05 3.05626e-05 3.05626e-05 4.66902e-06 4.66902e-06 -1.72319e-05 -1.72319e-05 -2.80943e-05 -2.80943e-05 -2.5326e-05 -2.5326e-05 -1.13872e-05 -1.13872e-05 6.59769e-06 6.59769e-06 1.94748e-05 1.94748e-05 2.06244e-05 2.06244e-05 9.96777e-06 9.96777e-06 -5.59498e-06 -5.59498e-06 -1.62801e-05 -1.62801e-05 -1.57084e-05 -1.57084e-05 -5.10106e-06 -5.10106e-06 7.71549e-06 7.71549e-06 1.39172e-05 1.39172e-05 9.88182e-06 9.88182e-06 -5.43742e-07 -5.43742e-07 -9.2922e-06 -9.2922e-06 -1.02495e-05 -1.02495e-05 -3.60497e-06 -3.60497e-06 4.82443e-06 4.82443e-06 8.49273e-06 8.49273e-06 5.19733e-06 5.19733e-06 -1.64399e-06 -1.64399e-06 -6.23852e-06 -6.23852e-06 -5.25073e-06 -5.25073e-06 -2.06169e-07 -2.06169e-07 4.27736e-06 4.27736e-06 4.61099e-06 4.61099e-06 1.08108e-06 1.08108e-06 -2.83846e-06 -2.83846e-06 -3.7871e-06 -3.7871e-06 -1.3636e-06 -1.3636e-06 1.88291e-06 1.88291e-06 3.018e-06 3.018e-06 1.33592e-06 1.33592e-06 -1.28831e-06 -1.28831e-06 -2.38274e-06 -2.38274e-06 -1.17058e-06 -1.17058e-06 9.34136e-07 9.34136e-07 1.88463e-06 1.88463e-06 9.60198e-07 9.60198e-07 -7.28666e-07 -7.28666e-07 -1.49982e-06 -1.49982e-06 -7.49095e-07 -7.49095e-07 6.09932e-07 6.09932e-07 1.20011e-06 1.20011e-06 5.55914e-07 5.55914e-07 -5.3869e-07 -5.3869e-07 -9.61535e-07 -9.61535e-07 -3.87044e-07 -3.87044e-07 4.9099e-07 4.9099e-07 7.66318e-07 7.66318e-07 2.43681e-07 2.43681e-07 -4.52596e-07 -4.52596e-07 -6.02302e-07 -6.02302e-07 -1.25155e-07 -1.25155e-07 4.15353e-07 4.15353e-07 4.61739e-07 4.61739e-07 3.03006e-08 3.03006e-08 -3.74992e-07 -3.74992e-07 -3.40097e-07 -3.40097e-07 4.21275e-08 4.21275e-08 3.29818e-07 3.29818e-07 2.3507e-07 2.3507e-07 -9.34463e-08 -9.34463e-08 -2.79929e-07 -2.79929e-07 -1.45782e-07 -1.45782e-07 1.25191e-07 1.25191e-07 2.26682e-07 2.26682e-07 7.21456e-08 7.21456e-08 -1.39279e-07 -1.39279e-07 -1.72292e-07 -1.72292e-07 -1.43344e-08 -1.43344e-08 1.3813e-07 1.3813e-07 1.19466e-07 1.19466e-07 -2.76414e-08 -2.76414e-08 -1.24705e-07 -1.24705e-07 -7.10468e-08 -7.10468e-08 5.42642e-08 5.42642e-08 1.02442e-07 1.02442e-07 2.96595e-08 2.96595e-08 -6.67291e-08 -6.67291e-08 -7.50884e-08 -7.50884e-08 2.62916e-09 2.62916e-09 6.70392e-08 6.70392e-08 4.64424e-08 4.64424e-08 -2.4604e-08 -2.4604e-08 -5.79593e-08 -5.79593e-08 -2.00109e-08 -2.00109e-08 3.611e-08 3.611e-08 4.28216e-08 4.28216e-08 -1.35689e-09 -1.35689e-09 -3.81283e-08 -3.81283e-08 -2.51919e-08 -2.51919e-08 1.58076e-08 1.58076e-08 3.26798e-08 3.26798e-08 8.43392e-09 8.43392e-09 -2.27166e-08 -2.27166e-08 -2.25408e-08 -2.25408e-08 4.75503e-09 4.75503e-09 2.27395e-08 2.27395e-08 1.07896e-08 1.07896e-08 -1.27414e-08 -1.27414e-08 -1.76339e-08 -1.76339e-08 -2.5757e-10 -2.5757e-10 1.51749e-08 1.51749e-08 9.84936e-09 9.84936e-09 -6.99795e-09 -6.99795e-09 -1.29466e-08 -1.29466e-08 -1.95302e-09 -1.95302e-09 1.006e-08 1.006e-08 7.86025e-09 7.86025e-09 -3.9735e-09 -3.9735e-09 -9.23801e-09 -9.23801e-09 -2.08026e-09 -2.08026e-09 6.79937e-09 6.79937e-09 5.82698e-09 5.82698e-09 -2.49734e-09 -2.49734e-09 -6.52297e-09 -6.52297e-09 -1.59816e-09 -1.59816e-09 4.75638e-09 4.75638e-09 4.09901e-09 4.09901e-09 -1.81865e-09 -1.81865e-09 -4.58474e-09 -4.58474e-09 -9.72718e-10 -9.72718e-10 3.44775e-09 3.44775e-09 2.73753e-09 2.73753e-09 -1.50539e-09 -1.50539e-09 -3.19267e-09 -3.19267e-09 -4.04945e-10 -4.04945e-10 2.55802e-09 2.55802e-09 1.70356e-09 1.70356e-09 -1.32824e-09 -1.32824e-09 -2.17068e-09 -2.17068e-09 3.20938e-11 3.20938e-11 1.90093e-09 1.90093e-09 9.39059e-10 9.39059e-10 -1.17584e-09 -1.17584e-09 -1.40386e-09 -1.40386e-09 3.22498e-10 3.22498e-10 1.37698e-09 1.37698e-09 3.94101e-10 3.94101e-10 -1.00295e-09 -1.00295e-09 -8.24991e-10 -8.24991e-10 4.75311e-10 4.75311e-10 9.40732e-10 9.40732e-10 3.06214e-11 3.06214e-11 -8.01175e-10 -8.01175e-10 -3.9764e-10 -3.9764e-10 5.11638e-10 5.11638e-10 5.77844e-10 5.77844e-10 -1.82024e-10 -1.82024e-10 -5.82352e-10 -5.82352e-10 -1.01461e-10 -1.01461e-10 4.5974e-10 4.5974e-10 2.89215e-10 2.89215e-10 -2.72647e-10 -2.72647e-10 -3.6799e-10 -3.6799e-10 7.8937e-11 7.8937e-11 3.52206e-10 3.52206e-10 7.96506e-11 7.96506e-11 -2.71877e-10 -2.71877e-10 -1.81366e-10 -1.81366e-10 1.61161e-10 1.61161e-10 2.22598e-10 2.22598e-10 -4.98984e-11 -4.98984e-11 -2.1276e-10 -2.1276e-10 -4.10557e-11 -4.10557e-11 1.68192e-10 1.68192e-10 1.0105e-10 1.0105e-10 -1.06722e-10 -1.06722e-10 -1.2838e-10 -1.2838e-10 4.37974e-11 4.37974e-11 1.27708e-10 1.27708e-10 9.60678e-12 9.60678e-12 -1.07139e-10 -1.07139e-10 -4.75099e-11 -4.75099e-11 7.56563e-11 7.56563e-11 6.83506e-11 6.83506e-11 -4.12827e-11 -4.12827e-11 -7.38128e-11 -7.38128e-11 1.00364e-11 1.00364e-11 6.74853e-11 6.74853e-11 1.44009e-11 1.44009e-11 -5.36573e-11 -5.36573e-11 -3.0509e-11 -3.0509e-11 3.64124e-11 3.64124e-11 3.84582e-11 3.84582e-11 -1.90686e-11 -1.90686e-11 -3.95285e-11 -3.95285e-11 3.93286e-12 3.93286e-12 3.55568e-11 3.55568e-11 7.70218e-12 7.70218e-12 -2.84901e-11 -2.84901e-11 -1.54081e-11 -1.54081e-11 2.00763e-11 2.00763e-11 1.9395e-11 1.9395e-11 -1.16925e-11 -1.16925e-11 -2.02731e-11 -2.02731e-11 4.28463e-12 4.28463e-12 1.88403e-11 1.88403e-11 1.6123e-12 1.6123e-12 -1.59192e-11 -1.59192e-11 -5.80534e-12 -5.80534e-12 1.22467e-11 1.22467e-11 8.35401e-12 8.35401e-12 -8.41347e-12 -8.41347e-12 -9.47957e-12 -9.47957e-12 4.84329e-12 4.84329e-12 9.48567e-12 9.48567e-12 -1.79979e-12 -1.79979e-12 -8.69677e-12 -8.69677e-12 -5.89529e-13 -5.89529e-13 7.41557e-12 7.41557e-12 2.3019e-12 2.3019e-12 -5.89787e-12 -5.89787e-12 -3.38676e-12 -3.38676e-12 4.34157e-12 4.34157e-12 3.93665e-12 3.93665e-12 -2.8859e-12 -2.8859e-12 -4.06351e-12 -4.06351e-12 1.61726e-12 1.61726e-12 3.88131e-12 3.88131e-12 -5.78568e-13 -5.78568e-13 -3.49456e-12 -3.49456e-12 -2.20218e-13 -2.20218e-13 2.99177e-12 2.99177e-12 7.91977e-13 7.91977e-13 -2.44287e-12 -2.44287e-12 -1.16362e-12 -1.16362e-12 1.89925e-12 1.89925e-12 1.36906e-12 1.36906e-12 -1.39563e-12 -1.39563e-12 -1.44396e-12 -1.44396e-12 9.52721e-13 9.52721e-13 1.42226e-12 1.42226e-12 -5.80271e-13 -5.80271e-13 -1.33397e-12 -1.33397e-12 2.79967e-13 2.79967e-13 1.2042e-12 1.2042e-12 -4.80216e-14 -4.80216e-14 -1.05282e-12 -1.05282e-12 -1.22696e-13 -1.22696e-13 8.94824e-13 8.94824e-13 2.41013e-13 2.41013e-13 -7.40815e-13 -7.40815e-13 -3.16242e-13 -3.16242e-13 5.97771e-13 5.97771e-13 3.5737e-13 3.5737e-13 -4.69772e-13 -4.69772e-13 -3.72546e-13 -3.72546e-13 3.58702e-13 3.58702e-13 3.68829e-13 3.68829e-13 -2.64869e-13 -2.64869e-13 -3.52085e-13 -3.52085e-13 1.87513e-13 1.87513e-13 3.27025e-13 3.27025e-13 -1.25218e-13 -1.25218e-13 -2.97297e-13 -2.97297e-13 7.62176e-14 7.62176e-14 2.65624e-13 2.65624e-13 -3.86223e-14 -3.86223e-14 -2.33954e-13 -2.33954e-13 1.0569e-14 1.0569e-14 2.03611e-13 2.03611e-13 9.67934e-15 9.67934e-15 -1.75427e-13 -1.75427e-13 -2.36792e-14 -2.36792e-14 1.49865e-13 1.49865e-13 3.27821e-14 3.27821e-14 -1.27116e-13 -1.27116e-13 -3.81313e-14 -3.81313e-14 1.07181e-13 1.07181e-13 4.06719e-14 4.06719e-14 -8.9936e-14 -8.9936e-14 -4.11689e-14 -4.11689e-14 7.51792e-14 7.51792e-14 4.023e-14 4.023e-14 -6.26679e-14 -6.26679e-14 -3.8328e-14 -3.8328e-14 5.21434e-14 5.21434e-14 3.58237e-14 3.58237e-14 -4.33495e-14 -4.33495e-14 -3.29865e-14 -3.29865e-14 3.60429e-14 3.60429e-14 3.00127e-14 3.00127e-14 -3.00004e-14 -3.00004e-14 -2.70409e-14 -2.70409e-14 2.50218e-14 2.50218e-14 2.41653e-14 2.41653e-14 -2.09315e-14 -2.09315e-14 -2.14467e-14 -2.14467e-14 1.75774e-14 1.75774e-14 1.89206e-14 1.89206e-14 -1.48295e-14 -1.48295e-14 -1.66047e-14 -1.66047e-14 1.25782e-14 1.25782e-14 1.45035e-14 1.45035e-14 -1.07316e-14 -1.07316e-14 -1.26133e-14 -1.26133e-14 9.21368e-15 9.21368e-15 1.09242e-14 1.09242e-14 -7.9616e-15 -7.9616e-15 -9.42316e-15 -9.42316e-15 6.92403e-15 6.92403e-15 8.09537e-15 8.09537e-15 -6.05917e-15 -6.05917e-15 -6.92529e-15 -6.92529e-15 5.33321e-15 5.33321e-15 5.89755e-15 5.89755e-15 -4.71889e-15 -4.71889e-15 -4.99742e-15 -4.99742e-15 4.19439e-15 4.19439e-15 4.21109e-15 4.21109e-15 -3.74225e-15 -3.74225e-15 -3.52588e-15 -3.52588e-15 3.34861e-15 3.34861e-15 2.93028e-15 2.93028e-15 -3.0025e-15 -3.0025e-15 -2.41391e-15 -2.41391e-15 2.69526e-15 2.69526e-15 1.96753e-15 1.96753e-15 -2.42011e-15 -2.42011e-15 -1.58291e-15 -1.58291e-15 2.17173e-15 2.17173e-15 1.25279e-15 1.25279e-15 -1.94599e-15 -1.94599e-15 -9.70741e-16 -9.70741e-16 1.7397e-15 1.7397e-15 7.31079e-16 7.31079e-16 -1.55039e-15 -1.55039e-15 -5.28795e-16 -5.28795e-16 1.37617e-15 1.37617e-15 3.59455e-16 3.59455e-16 -1.21559e-15 -1.21559e-15 -2.19122e-16 -2.19122e-16 1.06753e-15 1.06753e-15 1.04298e-16 1.04298e-16 -9.31146e-16 -9.31146e-16 -1.18544e-17 -1.18544e-17 8.05769e-16 8.05769e-16 -6.10116e-17 -6.10116e-17 -6.9087e-16 -6.9087e-16 1.16825e-16 1.16825e-16 5.86011e-16 5.86011e-16 -1.57868e-16 -1.57868e-16 -4.90813e-16 -4.90813e-16 1.8621e-16 1.8621e-16 4.04929e-16 4.04929e-16 -2.03732e-16 -2.03732e-16 -3.28019e-16 -3.28019e-16 2.12149e-16 2.12149e-16 2.59739e-16 2.59739e-16 -2.13021e-16 -2.13021e-16 -1.99727e-16 -1.99727e-16 2.07768e-16 2.07768e-16 1.47596e-16 1.47596e-16 -1.97677e-16 -1.97677e-16 -1.02925e-16 -1.02925e-16 1.83912e-16 1.83912e-16 6.52654e-17 6.52654e-17 -1.67512e-16 -1.67512e-16 -3.41323e-17 -3.41323e-17 1.49404e-16 1.49404e-16 9.01366e-18 9.01366e-18 -1.30397e-16 -1.30397e-16 1.06278e-17 1.06278e-17 1.11192e-16 1.11192e-16 -2.5348e-17 -2.5348e-17 -9.23801e-17 -9.23801e-17 3.57145e-17 3.57145e-17 7.44471e-17 7.44471e-17 -4.22983e-17 -4.22983e-17 -5.77783e-17 -5.77783e-17 4.56652e-17 4.56652e-17 4.26629e-17 4.26629e-17 -4.63672e-17 -4.63672e-17 -2.92993e-17 -2.92993e-17 4.49335e-17 4.49335e-17 1.78025e-17 1.78025e-17 -4.18631e-17 -4.18631e-17 -8.21213e-18 -8.21213e-18 3.76166e-17 3.76166e-17 5.00716e-19 5.00716e-19 -3.26108e-17 -3.26108e-17 5.41631e-18 5.41631e-18 2.72129e-17 2.72129e-17 -9.67062e-18 -9.67062e-18 -2.17375e-17 -2.17375e-17 1.24305e-17 1.24305e-17 1.64445e-17 1.64445e-17 -1.38903e-17 -1.38903e-17 -1.15385e-17 -1.15385e-17 1.42603e-17 1.42603e-17 7.17032e-18 7.17032e-18 -1.3757e-17 -1.3757e-17 -3.4395e-18 -3.4395e-18 1.25938e-17 1.25938e-17