# vtk DataFile Version 3.0
#This file was generated by the deal.II library on 2020/8/11 at 22:18:16
ASCII
DATASET UNSTRUCTURED_GRID

POINTS 4096 double
0.5 0 0
0.743896 0 0
0.743896 0 0
0.987793 0 0
0.987793 0 0
1.23169 0 0
1.23169 0 0
1.47559 0 0
1.47559 0 0
1.71948 0 0
1.71948 0 0
1.96338 0 0
1.96338 0 0
2.20728 0 0
2.20728 0 0
2.45117 0 0
2.45117 0 0
2.69507 0 0
2.69507 0 0
2.93896 0 0
2.93896 0 0
3.18286 0 0
3.18286 0 0
3.42676 0 0
3.42676 0 0
3.67065 0 0
3.67065 0 0
3.91455 0 0
3.91455 0 0
4.15845 0 0
4.15845 0 0
4.40234 0 0
4.40234 0 0
4.64624 0 0
4.64624 0 0
4.89014 0 0
4.89014 0 0
5.13403 0 0
5.13403 0 0
5.37793 0 0
5.37793 0 0
5.62183 0 0
5.62183 0 0
5.86572 0 0
5.86572 0 0
6.10962 0 0
6.10962 0 0
6.35352 0 0
6.35352 0 0
6.59741 0 0
6.59741 0 0
6.84131 0 0
6.84131 0 0
7.08521 0 0
7.08521 0 0
7.3291 0 0
7.3291 0 0
7.573 0 0
7.573 0 0
7.81689 0 0
7.81689 0 0
8.06079 0 0
8.06079 0 0
8.30469 0 0
8.30469 0 0
8.54858 0 0
8.54858 0 0
8.79248 0 0
8.79248 0 0
9.03638 0 0
9.03638 0 0
9.28027 0 0
9.28027 0 0
9.52417 0 0
9.52417 0 0
9.76807 0 0
9.76807 0 0
10.012 0 0
10.012 0 0
10.2559 0 0
10.2559 0 0
10.4998 0 0
10.4998 0 0
10.7437 0 0
10.7437 0 0
10.9875 0 0
10.9875 0 0
11.2314 0 0
11.2314 0 0
11.4753 0 0
11.4753 0 0
11.7192 0 0
11.7192 0 0
11.9631 0 0
11.9631 0 0
12.207 0 0
12.207 0 0
12.4509 0 0
12.4509 0 0
12.6948 0 0
12.6948 0 0
12.9387 0 0
12.9387 0 0
13.1826 0 0
13.1826 0 0
13.4265 0 0
13.4265 0 0
13.6704 0 0
13.6704 0 0
13.9143 0 0
13.9143 0 0
14.1582 0 0
14.1582 0 0
14.4021 0 0
14.4021 0 0
14.646 0 0
14.646 0 0
14.8899 0 0
14.8899 0 0
15.1338 0 0
15.1338 0 0
15.3777 0 0
15.3777 0 0
15.6216 0 0
15.6216 0 0
15.8655 0 0
15.8655 0 0
16.1094 0 0
16.1094 0 0
16.3533 0 0
16.3533 0 0
16.5972 0 0
16.5972 0 0
16.8411 0 0
16.8411 0 0
17.085 0 0
17.085 0 0
17.3289 0 0
17.3289 0 0
17.5728 0 0
17.5728 0 0
17.8167 0 0
17.8167 0 0
18.0605 0 0
18.0605 0 0
18.3044 0 0
18.3044 0 0
18.5483 0 0
18.5483 0 0
18.7922 0 0
18.7922 0 0
19.0361 0 0
19.0361 0 0
19.28 0 0
19.28 0 0
19.5239 0 0
19.5239 0 0
19.7678 0 0
19.7678 0 0
20.0117 0 0
20.0117 0 0
20.2556 0 0
20.2556 0 0
20.4995 0 0
20.4995 0 0
20.7434 0 0
20.7434 0 0
20.9873 0 0
20.9873 0 0
21.2312 0 0
21.2312 0 0
21.4751 0 0
21.4751 0 0
21.719 0 0
21.719 0 0
21.9629 0 0
21.9629 0 0
22.2068 0 0
22.2068 0 0
22.4507 0 0
22.4507 0 0
22.6946 0 0
22.6946 0 0
22.9385 0 0
22.9385 0 0
23.1824 0 0
23.1824 0 0
23.4263 0 0
23.4263 0 0
23.6702 0 0
23.6702 0 0
23.9141 0 0
23.9141 0 0
24.158 0 0
24.158 0 0
24.4019 0 0
24.4019 0 0
24.6458 0 0
24.6458 0 0
24.8896 0 0
24.8896 0 0
25.1335 0 0
25.1335 0 0
25.3774 0 0
25.3774 0 0
25.6213 0 0
25.6213 0 0
25.8652 0 0
25.8652 0 0
26.1091 0 0
26.1091 0 0
26.353 0 0
26.353 0 0
26.5969 0 0
26.5969 0 0
26.8408 0 0
26.8408 0 0
27.0847 0 0
27.0847 0 0
27.3286 0 0
27.3286 0 0
27.5725 0 0
27.5725 0 0
27.8164 0 0
27.8164 0 0
28.0603 0 0
28.0603 0 0
28.3042 0 0
28.3042 0 0
28.5481 0 0
28.5481 0 0
28.792 0 0
28.792 0 0
29.0359 0 0
29.0359 0 0
29.2798 0 0
29.2798 0 0
29.5237 0 0
29.5237 0 0
29.7676 0 0
29.7676 0 0
30.0115 0 0
30.0115 0 0
30.2554 0 0
30.2554 0 0
30.4993 0 0
30.4993 0 0
30.7432 0 0
30.7432 0 0
30.9871 0 0
30.9871 0 0
31.231 0 0
31.231 0 0
31.4749 0 0
31.4749 0 0
31.7188 0 0
31.7188 0 0
31.9626 0 0
31.9626 0 0
32.2065 0 0
32.2065 0 0
32.4504 0 0
32.4504 0 0
32.6943 0 0
32.6943 0 0
32.9382 0 0
32.9382 0 0
33.1821 0 0
33.1821 0 0
33.426 0 0
33.426 0 0
33.6699 0 0
33.6699 0 0
33.9138 0 0
33.9138 0 0
34.1577 0 0
34.1577 0 0
34.4016 0 0
34.4016 0 0
34.6455 0 0
34.6455 0 0
34.8894 0 0
34.8894 0 0
35.1333 0 0
35.1333 0 0
35.3772 0 0
35.3772 0 0
35.6211 0 0
35.6211 0 0
35.865 0 0
35.865 0 0
36.1089 0 0
36.1089 0 0
36.3528 0 0
36.3528 0 0
36.5967 0 0
36.5967 0 0
36.8406 0 0
36.8406 0 0
37.0845 0 0
37.0845 0 0
37.3284 0 0
37.3284 0 0
37.5723 0 0
37.5723 0 0
37.8162 0 0
37.8162 0 0
38.0601 0 0
38.0601 0 0
38.304 0 0
38.304 0 0
38.5479 0 0
38.5479 0 0
38.7917 0 0
38.7917 0 0
39.0356 0 0
39.0356 0 0
39.2795 0 0
39.2795 0 0
39.5234 0 0
39.5234 0 0
39.7673 0 0
39.7673 0 0
40.0112 0 0
40.0112 0 0
40.2551 0 0
40.2551 0 0
40.499 0 0
40.499 0 0
40.7429 0 0
40.7429 0 0
40.9868 0 0
40.9868 0 0
41.2307 0 0
41.2307 0 0
41.4746 0 0
41.4746 0 0
41.7185 0 0
41.7185 0 0
41.9624 0 0
41.9624 0 0
42.2063 0 0
42.2063 0 0
42.4502 0 0
42.4502 0 0
42.6941 0 0
42.6941 0 0
42.938 0 0
42.938 0 0
43.1819 0 0
43.1819 0 0
43.4258 0 0
43.4258 0 0
43.6697 0 0
43.6697 0 0
43.9136 0 0
43.9136 0 0
44.1575 0 0
44.1575 0 0
44.4014 0 0
44.4014 0 0
44.6453 0 0
44.6453 0 0
44.8892 0 0
44.8892 0 0
45.1331 0 0
45.1331 0 0
45.377 0 0
45.377 0 0
45.6208 0 0
45.6208 0 0
45.8647 0 0
45.8647 0 0
46.1086 0 0
46.1086 0 0
46.3525 0 0
46.3525 0 0
46.5964 0 0
46.5964 0 0
46.8403 0 0
46.8403 0 0
47.0842 0 0
47.0842 0 0
47.3281 0 0
47.3281 0 0
47.572 0 0
47.572 0 0
47.8159 0 0
47.8159 0 0
48.0598 0 0
48.0598 0 0
48.3037 0 0
48.3037 0 0
48.5476 0 0
48.5476 0 0
48.7915 0 0
48.7915 0 0
49.0354 0 0
49.0354 0 0
49.2793 0 0
49.2793 0 0
49.5232 0 0
49.5232 0 0
49.7671 0 0
49.7671 0 0
50.011 0 0
50.011 0 0
50.2549 0 0
50.2549 0 0
50.4988 0 0
50.4988 0 0
50.7427 0 0
50.7427 0 0
50.9866 0 0
50.9866 0 0
51.2305 0 0
51.2305 0 0
51.4744 0 0
51.4744 0 0
51.7183 0 0
51.7183 0 0
51.9622 0 0
51.9622 0 0
52.2061 0 0
52.2061 0 0
52.45 0 0
52.45 0 0
52.6938 0 0
52.6938 0 0
52.9377 0 0
52.9377 0 0
53.1816 0 0
53.1816 0 0
53.4255 0 0
53.4255 0 0
53.6694 0 0
53.6694 0 0
53.9133 0 0
53.9133 0 0
54.1572 0 0
54.1572 0 0
54.4011 0 0
54.4011 0 0
54.645 0 0
54.645 0 0
54.8889 0 0
54.8889 0 0
55.1328 0 0
55.1328 0 0
55.3767 0 0
55.3767 0 0
55.6206 0 0
55.6206 0 0
55.8645 0 0
55.8645 0 0
56.1084 0 0
56.1084 0 0
56.3523 0 0
56.3523 0 0
56.5962 0 0
56.5962 0 0
56.8401 0 0
56.8401 0 0
57.084 0 0
57.084 0 0
57.3279 0 0
57.3279 0 0
57.5718 0 0
57.5718 0 0
57.8157 0 0
57.8157 0 0
58.0596 0 0
58.0596 0 0
58.3035 0 0
58.3035 0 0
58.5474 0 0
58.5474 0 0
58.7913 0 0
58.7913 0 0
59.0352 0 0
59.0352 0 0
59.2791 0 0
59.2791 0 0
59.5229 0 0
59.5229 0 0
59.7668 0 0
59.7668 0 0
60.0107 0 0
60.0107 0 0
60.2546 0 0
60.2546 0 0
60.4985 0 0
60.4985 0 0
60.7424 0 0
60.7424 0 0
60.9863 0 0
60.9863 0 0
61.2302 0 0
61.2302 0 0
61.4741 0 0
61.4741 0 0
61.718 0 0
61.718 0 0
61.9619 0 0
61.9619 0 0
62.2058 0 0
62.2058 0 0
62.4497 0 0
62.4497 0 0
62.6936 0 0
62.6936 0 0
62.9375 0 0
62.9375 0 0
63.1814 0 0
63.1814 0 0
63.4253 0 0
63.4253 0 0
63.6692 0 0
63.6692 0 0
63.9131 0 0
63.9131 0 0
64.157 0 0
64.157 0 0
64.4009 0 0
64.4009 0 0
64.6448 0 0
64.6448 0 0
64.8887 0 0
64.8887 0 0
65.1326 0 0
65.1326 0 0
65.3765 0 0
65.3765 0 0
65.6204 0 0
65.6204 0 0
65.8643 0 0
65.8643 0 0
66.1082 0 0
66.1082 0 0
66.3521 0 0
66.3521 0 0
66.5959 0 0
66.5959 0 0
66.8398 0 0
66.8398 0 0
67.0837 0 0
67.0837 0 0
67.3276 0 0
67.3276 0 0
67.5715 0 0
67.5715 0 0
67.8154 0 0
67.8154 0 0
68.0593 0 0
68.0593 0 0
68.3032 0 0
68.3032 0 0
68.5471 0 0
68.5471 0 0
68.791 0 0
68.791 0 0
69.0349 0 0
69.0349 0 0
69.2788 0 0
69.2788 0 0
69.5227 0 0
69.5227 0 0
69.7666 0 0
69.7666 0 0
70.0105 0 0
70.0105 0 0
70.2544 0 0
70.2544 0 0
70.4983 0 0
70.4983 0 0
70.7422 0 0
70.7422 0 0
70.9861 0 0
70.9861 0 0
71.23 0 0
71.23 0 0
71.4739 0 0
71.4739 0 0
71.7178 0 0
71.7178 0 0
71.9617 0 0
71.9617 0 0
72.2056 0 0
72.2056 0 0
72.4495 0 0
72.4495 0 0
72.6934 0 0
72.6934 0 0
72.9373 0 0
72.9373 0 0
73.1812 0 0
73.1812 0 0
73.425 0 0
73.425 0 0
73.6689 0 0
73.6689 0 0
73.9128 0 0
73.9128 0 0
74.1567 0 0
74.1567 0 0
74.4006 0 0
74.4006 0 0
74.6445 0 0
74.6445 0 0
74.8884 0 0
74.8884 0 0
75.1323 0 0
75.1323 0 0
75.3762 0 0
75.3762 0 0
75.6201 0 0
75.6201 0 0
75.864 0 0
75.864 0 0
76.1079 0 0
76.1079 0 0
76.3518 0 0
76.3518 0 0
76.5957 0 0
76.5957 0 0
76.8396 0 0
76.8396 0 0
77.0835 0 0
77.0835 0 0
77.3274 0 0
77.3274 0 0
77.5713 0 0
77.5713 0 0
77.8152 0 0
77.8152 0 0
78.0591 0 0
78.0591 0 0
78.303 0 0
78.303 0 0
78.5469 0 0
78.5469 0 0
78.7908 0 0
78.7908 0 0
79.0347 0 0
79.0347 0 0
79.2786 0 0
79.2786 0 0
79.5225 0 0
79.5225 0 0
79.7664 0 0
79.7664 0 0
80.0103 0 0
80.0103 0 0
80.2542 0 0
80.2542 0 0
80.498 0 0
80.498 0 0
80.7419 0 0
80.7419 0 0
80.9858 0 0
80.9858 0 0
81.2297 0 0
81.2297 0 0
81.4736 0 0
81.4736 0 0
81.7175 0 0
81.7175 0 0
81.9614 0 0
81.9614 0 0
82.2053 0 0
82.2053 0 0
82.4492 0 0
82.4492 0 0
82.6931 0 0
82.6931 0 0
82.937 0 0
82.937 0 0
83.1809 0 0
83.1809 0 0
83.4248 0 0
83.4248 0 0
83.6687 0 0
83.6687 0 0
83.9126 0 0
83.9126 0 0
84.1565 0 0
84.1565 0 0
84.4004 0 0
84.4004 0 0
84.6443 0 0
84.6443 0 0
84.8882 0 0
84.8882 0 0
85.1321 0 0
85.1321 0 0
85.376 0 0
85.376 0 0
85.6199 0 0
85.6199 0 0
85.8638 0 0
85.8638 0 0
86.1077 0 0
86.1077 0 0
86.3516 0 0
86.3516 0 0
86.5955 0 0
86.5955 0 0
86.8394 0 0
86.8394 0 0
87.0833 0 0
87.0833 0 0
87.3271 0 0
87.3271 0 0
87.571 0 0
87.571 0 0
87.8149 0 0
87.8149 0 0
88.0588 0 0
88.0588 0 0
88.3027 0 0
88.3027 0 0
88.5466 0 0
88.5466 0 0
88.7905 0 0
88.7905 0 0
89.0344 0 0
89.0344 0 0
89.2783 0 0
89.2783 0 0
89.5222 0 0
89.5222 0 0
89.7661 0 0
89.7661 0 0
90.01 0 0
90.01 0 0
90.2539 0 0
90.2539 0 0
90.4978 0 0
90.4978 0 0
90.7417 0 0
90.7417 0 0
90.9856 0 0
90.9856 0 0
91.2295 0 0
91.2295 0 0
91.4734 0 0
91.4734 0 0
91.7173 0 0
91.7173 0 0
91.9612 0 0
91.9612 0 0
92.2051 0 0
92.2051 0 0
92.449 0 0
92.449 0 0
92.6929 0 0
92.6929 0 0
92.9368 0 0
92.9368 0 0
93.1807 0 0
93.1807 0 0
93.4246 0 0
93.4246 0 0
93.6685 0 0
93.6685 0 0
93.9124 0 0
93.9124 0 0
94.1562 0 0
94.1562 0 0
94.4001 0 0
94.4001 0 0
94.644 0 0
94.644 0 0
94.8879 0 0
94.8879 0 0
95.1318 0 0
95.1318 0 0
95.3757 0 0
95.3757 0 0
95.6196 0 0
95.6196 0 0
95.8635 0 0
95.8635 0 0
96.1074 0 0
96.1074 0 0
96.3513 0 0
96.3513 0 0
96.5952 0 0
96.5952 0 0
96.8391 0 0
96.8391 0 0
97.083 0 0
97.083 0 0
97.3269 0 0
97.3269 0 0
97.5708 0 0
97.5708 0 0
97.8147 0 0
97.8147 0 0
98.0586 0 0
98.0586 0 0
98.3025 0 0
98.3025 0 0
98.5464 0 0
98.5464 0 0
98.7903 0 0
98.7903 0 0
99.0342 0 0
99.0342 0 0
99.2781 0 0
99.2781 0 0
99.522 0 0
99.522 0 0
99.7659 0 0
99.7659 0 0
100.01 0 0
100.01 0 0
100.254 0 0
100.254 0 0
100.498 0 0
100.498 0 0
100.741 0 0
100.741 0 0
100.985 0 0
100.985 0 0
101.229 0 0
101.229 0 0
101.473 0 0
[...]
POINT_DATA 4096
SCALARS solution_0 double 1
LOOKUP_TABLE default
0.000798143 -4.02283e+11 -4.02283e+11 -1.58519e+11 -1.58519e+11 -1.03462e+11 -1.03462e+11 -7.64773e+10 -7.64773e+10 -5.98482e+10 -5.98482e+10 -4.8396e+10 -4.8396e+10 -3.99784e+10 -3.99784e+10 -3.35232e+10 -3.35232e+10 -2.8424e+10 -2.8424e+10 -2.43076e+10 -2.43076e+10 -2.09291e+10 -2.09291e+10 -1.81202e+10 -1.81202e+10 -1.57605e+10 -1.57605e+10 -1.37613e+10 -1.37613e+10 -1.20554e+10 -1.20554e+10 -1.05913e+10 -1.05913e+10 -9.32825e+09 -9.32825e+09 -8.2339e+09 -8.2339e+09 -7.28212e+09 -7.28212e+09 -6.4516e+09 -6.4516e+09 -5.72476e+09 -5.72476e+09 -5.087e+09 -5.087e+09 -4.5261e+09 -4.5261e+09 -4.03177e+09 -4.03177e+09 -3.59529e+09 -3.59529e+09 -3.20923e+09 -3.20923e+09 -2.86723e+09 -2.86723e+09 -2.56384e+09 -2.56384e+09 -2.29434e+09 -2.29434e+09 -2.05467e+09 -2.05467e+09 -1.84128e+09 -1.84128e+09 -1.6511e+09 -1.6511e+09 -1.48144e+09 -1.48144e+09 -1.32996e+09 -1.32996e+09 -1.1946e+09 -1.1946e+09 -1.07354e+09 -1.07354e+09 -9.65203e+08 -9.65203e+08 -8.68182e+08 -8.68182e+08 -7.8124e+08 -7.8124e+08 -7.03283e+08 -7.03283e+08 -6.33344e+08 -6.33344e+08 -5.70565e+08 -5.70565e+08 -5.14184e+08 -5.14184e+08 -4.63525e+08 -4.63525e+08 -4.17987e+08 -4.17987e+08 -3.77035e+08 -3.77035e+08 -3.40191e+08 -3.40191e+08 -3.07031e+08 -3.07031e+08 -2.77175e+08 -2.77175e+08 -2.50285e+08 -2.50285e+08 -2.26058e+08 -2.26058e+08 -2.04223e+08 -2.04223e+08 -1.84538e+08 -1.84538e+08 -1.66785e+08 -1.66785e+08 -1.50772e+08 -1.50772e+08 -1.36323e+08 -1.36323e+08 -1.23282e+08 -1.23282e+08 -1.11508e+08 -1.11508e+08 -1.00878e+08 -1.00878e+08 -9.12759e+07 -9.12759e+07 -8.26017e+07 -8.26017e+07 -7.47639e+07 -7.47639e+07 -6.76802e+07 -6.76802e+07 -6.12769e+07 -6.12769e+07 -5.54874e+07 -5.54874e+07 -5.0252e+07 -5.0252e+07 -4.55168e+07 -4.55168e+07 -4.12333e+07 -4.12333e+07 -3.73576e+07 -3.73576e+07 -3.38505e+07 -3.38505e+07 -3.06763e+07 -3.06763e+07 -2.78031e+07 -2.78031e+07 -2.52018e+07 -2.52018e+07 -2.28465e+07 -2.28465e+07 -2.07135e+07 -2.07135e+07 -1.87817e+07 -1.87817e+07 -1.70317e+07 -1.70317e+07 -1.54464e+07 -1.54464e+07 -1.401e+07 -1.401e+07 -1.27084e+07 -1.27084e+07 -1.15287e+07 -1.15287e+07 -1.04595e+07 -1.04595e+07 -9.49034e+06 -9.49034e+06 -8.61169e+06 -8.61169e+06 -7.81504e+06 -7.81504e+06 -7.09267e+06 -7.09267e+06 -6.43759e+06 -6.43759e+06 -5.84346e+06 -5.84346e+06 -5.30457e+06 -5.30457e+06 -4.81574e+06 -4.81574e+06 -4.37227e+06 -4.37227e+06 -3.96993e+06 -3.96993e+06 -3.60486e+06 -3.60486e+06 -3.27359e+06 -3.27359e+06 -2.97295e+06 -2.97295e+06 -2.7001e+06 -2.7001e+06 -2.45246e+06 -2.45246e+06 -2.22766e+06 -2.22766e+06 -2.02359e+06 -2.02359e+06 -1.83833e+06 -1.83833e+06 -1.67013e+06 -1.67013e+06 -1.5174e+06 -1.5174e+06 -1.37872e+06 -1.37872e+06 -1.25279e+06 -1.25279e+06 -1.13842e+06 -1.13842e+06 -1.03454e+06 -1.03454e+06 -940194 -940194 -854495 -854495 -776647 -776647 -705926 -705926 -641676 -641676 -583302 -583302 -530263 -530263 -482069 -482069 -438275 -438275 -398477 -398477 -362309 -362309 -329438 -329438 -299562 -299562 -272407 -272407 -247723 -247723 -225285 -225285 -204888 -204888 -186344 -186344 -169486 -169486 -154158 -154158 -140222 -140222 -127550 -127550 -116027 -116027 -105550 -105550 -96021.3 -96021.3 -87356.2 -87356.2 -79475.7 -79475.7 -72308.5 -72308.5 -65789.8 -65789.8 -59860.7 -59860.7 -54467.7 -54467.7 -49562.1 -49562.1 -45099.7 -45099.7 -41040.3 -41040.3 -37347.5 -37347.5 -33987.9 -33987.9 -30931.4 -30931.4 -28150.6 -28150.6 -25620.6 -25620.6 -23318.5 -23318.5 -21223.9 -21223.9 -19318 -19318 -17583.7 -17583.7 -16005.5 -16005.5 -14569.4 -14569.4 -13262.4 -13262.4 -12073 -12073 -10990.6 -10990.6 -10005.4 -10005.4 -9108.77 -9108.77 -8292.69 -8292.69 -7549.91 -7549.91 -6873.82 -6873.82 -6258.41 -6258.41 -5698.24 -5698.24 -5188.32 -5188.32 -4724.14 -4724.14 -4301.58 -4301.58 -3916.91 -3916.91 -3566.71 -3566.71 -3247.89 -3247.89 -2957.63 -2957.63 -2693.37 -2693.37 -2452.76 -2452.76 -2233.7 -2233.7 -2034.25 -2034.25 -1852.64 -1852.64 -1687.27 -1687.27 -1536.7 -1536.7 -1399.59 -1399.59 -1274.74 -1274.74 -1161.05 -1161.05 -1057.51 -1057.51 -963.23 -963.23 -877.369 -877.369 -799.176 -799.176 -727.964 -727.964 -663.109 -663.109 -604.043 -604.043 -550.247 -550.247 -501.251 -501.251 -456.625 -456.625 -415.98 -415.98 -378.958 -378.958 -345.237 -345.237 -314.522 -314.522 -286.543 -286.543 -261.058 -261.058 -237.843 -237.843 -216.696 -216.696 -197.432 -197.432 -179.884 -179.884 -163.897 -163.897 -149.334 -149.334 -136.066 -136.066 -123.979 -123.979 -112.968 -112.968 -102.936 -102.936 -93.7959 -93.7959 -85.4688 -85.4688 -77.882 -77.882 -70.9696 -70.9696 -64.6716 -64.6716 -58.9333 -58.9333 -53.7049 -53.7049 -48.941 -48.941 -44.6002 -44.6002 -40.645 -40.645 -37.041 -37.041 -33.757 -33.757 -30.7645 -30.7645 -28.0377 -28.0377 -25.5528 -25.5528 -23.2885 -23.2885 -21.2251 -21.2251 -19.3447 -19.3447 -17.6311 -17.6311 -16.0695 -16.0695 -14.6464 -14.6464 -13.3495 -13.3495 -12.1675 -12.1675 -11.0904 -11.0904 -10.1087 -10.1087 -9.21397 -9.21397 -8.39854 -8.39854 -7.65536 -7.65536 -6.978 -6.978 -6.36063 -6.36063 -5.79792 -5.79792 -5.28501 -5.28501 -4.81748 -4.81748 -4.39126 -4.39126 -4.00269 -4.00269 -3.64837 -3.64837 -3.32522 -3.32522 -3.0304 -3.0304 -2.76131 -2.76131 -2.51555 -2.51555 -2.29089 -2.29089 -2.08528 -2.08528 -1.89682 -1.89682 -1.72373 -1.72373 -1.56435 -1.56435 -1.41718 -1.41718 -1.28082 -1.28082 -1.15401 -1.15401 -1.03565 -1.03565 -0.924812 -0.924812 -0.820736 -0.820736 -0.72287 -0.72287 -0.630862 -0.630862 -0.544557 -0.544557 -0.46397 -0.46397 -0.389253 -0.389253 -0.320638 -0.320638 -0.258368 -0.258368 -0.20263 -0.20263 -0.153487 -0.153487 -0.110832 -0.110832 -0.0743658 -0.0743658 -0.043608 -0.043608 -0.01794 -0.01794 0.00332914 0.00332914 0.0208929 0.0208929 0.0353917 0.0353917 0.0473967 0.0473967 0.0574476 0.0574476 0.0661493 0.0661493 0.074316 0.074316 0.0831357 0.0831357 0.0943159 0.0943159 0.110169 0.110169 0.133602 0.133602 0.168 0.168 0.217007 0.217007 0.284236 0.284236 0.372957 0.372957 0.485813 0.485813 0.624581 0.624581 0.790006 0.790006 0.98166 0.98166 1.19782 1.19782 1.43531 1.43531 1.68927 1.68927 1.95297 1.95297 2.21759 2.21759 2.4722 2.4722 2.70398 2.70398 2.89877 2.89877 3.04203 3.04203 3.12003 3.12003 3.12149 3.12149 3.03903 3.03903 2.87073 2.87073 2.62108 2.62108 2.30141 2.30141 1.92951 1.92951 1.52831 1.52831 1.12368 1.12368 0.741765 0.741765 0.405886 0.405886 0.13385 0.13385 -0.064099 -0.064099 -0.186204 -0.186204 -0.238853 -0.238853 -0.23504 -0.23504 -0.191946 -0.191946 -0.128093 -0.128093 -0.0605687 -0.0605687 -0.002788 -0.002788 0.0369033 0.0369033 0.055625 0.055625 0.0553789 0.0553789 0.0416689 0.0416689 0.0216415 0.0216415 0.00215799 0.00215799 -0.011779 -0.011779 -0.0179014 -0.0179014 -0.0166979 -0.0166979 -0.0106698 -0.0106698 -0.00313014 -0.00313014 0.00301955 0.00301955 0.00613356 0.00613356 0.00606487 0.00606487 0.00382977 0.00382977 0.000930582 0.000930582 -0.00133611 -0.00133611 -0.00231427 -0.00231427 -0.00205473 -0.00205473 -0.00107925 -0.00107925 -2.14032e-05 -2.14032e-05 0.000668602 0.000668602 0.000846889 0.000846889 0.000627099 0.000627099 0.000239169 0.000239169 -0.000107917 -0.000107917 -0.000299305 -0.000299305 -0.000317885 -0.000317885 -0.000209659 -0.000209659 -4.59491e-05 -4.59491e-05 0.000101758 0.000101758 0.000178131 0.000178131 0.000159074 0.000159074 6.28852e-05 6.28852e-05 -5.43654e-05 -5.43654e-05 -0.000126033 -0.000126033 -0.00011372 -0.00011372 -3.23627e-05 -3.23627e-05 5.91698e-05 5.91698e-05 9.88036e-05 9.88036e-05 6.49411e-05 6.49411e-05 -9.91754e-06 -9.91754e-06 -6.64257e-05 -6.64257e-05 -6.49768e-05 -6.49768e-05 -1.443e-05 -1.443e-05 3.92525e-05 3.92525e-05 5.32071e-05 5.32071e-05 2.19765e-05 2.19765e-05 -2.21612e-05 -2.21612e-05 -4.04745e-05 -4.04745e-05 -2.1343e-05 -2.1343e-05 1.30763e-05 1.30763e-05 3.03693e-05 3.03693e-05 1.77931e-05 1.77931e-05 -8.83401e-06 -8.83401e-06 -2.314e-05 -2.314e-05 -1.37501e-05 -1.37501e-05 7.09069e-06 7.09069e-06 1.80438e-05 1.80438e-05 1.00718e-05 1.00718e-05 -6.47377e-06 -6.47377e-06 -1.43106e-05 -1.43106e-05 -6.94918e-06 -6.94918e-06 6.27012e-06 6.27012e-06 1.13941e-05 1.13941e-05 4.35819e-06 4.35819e-06 -6.13218e-06 -6.13218e-06 -8.96534e-06 -8.96534e-06 -2.23835e-06 -2.23835e-06 5.89741e-06 5.89741e-06 6.84759e-06 6.84759e-06 5.44455e-07 5.44455e-07 -5.49652e-06 -5.49652e-06 -4.96049e-06 -4.96049e-06 7.49042e-07 7.49042e-07 4.9118e-06 4.9118e-06 3.28161e-06 3.28161e-06 -1.65704e-06 -1.65704e-06 -4.15909e-06 -4.15909e-06 -1.82206e-06 -1.82206e-06 2.19441e-06 2.19441e-06 3.27935e-06 3.27935e-06 6.09959e-07 6.09959e-07 -2.38499e-06 -2.38499e-06 -2.33322e-06 -2.33322e-06 3.22464e-07 3.22464e-07 2.26846e-06 2.26846e-06 1.39532e-06 1.39532e-06 -9.50298e-07 -9.50298e-07 -1.90463e-06 -1.90463e-06 -5.46582e-07 -5.46582e-07 1.26667e-06 1.26667e-06 1.37416e-06 1.37416e-06 -1.36474e-07 -1.36474e-07 -1.2919e-06 -1.2919e-06 -7.74201e-07 -7.74201e-07 5.95036e-07 5.95036e-07 1.07884e-06 1.07884e-06 2.07689e-07 2.07689e-07 -8.01854e-07 -8.01854e-07 -7.11222e-07 -7.11222e-07 2.33198e-07 2.33198e-07 7.71539e-07 7.71539e-07 2.92812e-07 2.92812e-07 -4.86277e-07 -4.86277e-07 -5.62234e-07 -5.62234e-07 7.2589e-08 7.2589e-08 5.35212e-07 5.35212e-07 2.6492e-07 2.6492e-07 -3.05733e-07 -3.05733e-07 -4.14834e-07 -4.14834e-07 1.94057e-08 1.94057e-08 3.72976e-07 3.72976e-07 2.00922e-07 2.00922e-07 -2.08741e-07 -2.08741e-07 -2.94531e-07 -2.94531e-07 1.47974e-08 1.47974e-08 2.64734e-07 2.64734e-07 1.34242e-07 1.34242e-07 -1.56517e-07 -1.56517e-07 -2.02046e-07 -2.02046e-07 2.71839e-08 2.71839e-08 1.90204e-07 1.90204e-07 7.68854e-08 7.68854e-08 -1.2509e-07 -1.2509e-07 -1.31587e-07 -1.31587e-07 4.12105e-08 4.12105e-08 1.35196e-07 1.35196e-07 3.21237e-08 3.21237e-08 -1.01394e-07 -1.01394e-07 -7.77778e-08 -7.77778e-08 5.01029e-08 5.01029e-08 9.16341e-08 9.16341e-08 2.58737e-10 2.58737e-10 -7.93544e-08 -7.93544e-08 -3.73085e-08 -3.73085e-08 5.15539e-08 5.15539e-08 5.59406e-08 5.59406e-08 -1.93599e-08 -1.93599e-08 -5.71686e-08 -5.71686e-08 -8.56597e-09 -8.56597e-09 4.57957e-08 4.57957e-08 2.73002e-08 2.73002e-08 -2.79736e-08 -2.79736e-08 -3.55446e-08 -3.55446e-08 9.31617e-09 9.31617e-09 3.46839e-08 3.46839e-08 6.17595e-09 6.17595e-09 -2.7562e-08 -2.7562e-08 -1.643e-08 -1.643e-08 1.73749e-08 1.73749e-08 2.10742e-08 2.10742e-08 -6.8903e-09 -6.8903e-09 -2.09278e-08 -2.09278e-08 -1.95722e-09 -1.95722e-09 1.74295e-08 1.74295e-08 8.15186e-09 8.15186e-09 -1.21511e-08 -1.21511e-08 -1.14686e-08 -1.14686e-08 6.46224e-09 6.46224e-09 1.22397e-08 1.22397e-08 -1.35799e-09 -1.35799e-09 -1.11036e-08 -1.11036e-08 -2.58206e-09 -2.58206e-09 8.79044e-09 8.79044e-09 5.14538e-09 5.14538e-09 -5.97117e-09 -5.97117e-09 -6.39262e-09 -6.39262e-09 3.17221e-09 3.17221e-09 6.55284e-09 6.55284e-09 -7.45607e-10 -7.45607e-10 -5.93022e-09 -5.93022e-09 -1.12187e-09 -1.12187e-09 4.83356e-09 4.83356e-09 2.37745e-09 2.37745e-09 -3.53134e-09 -3.53134e-09 -3.06261e-09 -3.06261e-09 2.22936e-09 2.22936e-09 3.27437e-09 3.27437e-09 -1.0658e-09 -1.0658e-09 -3.13319e-09 -3.13319e-09 1.17482e-10 1.17482e-10 2.75962e-09 2.75962e-09 5.87945e-10 5.87945e-10 -2.2597e-09 -2.2597e-09 -1.05789e-09 -1.05789e-09 1.71765e-09 1.71765e-09 1.32155e-09 1.32155e-09 -1.19405e-09 -1.19405e-09 -1.41895e-09 -1.41895e-09 7.27577e-10 7.27577e-10 1.39277e-09 1.39277e-09 -3.38674e-10 -3.38674e-10 -1.2829e-09 -1.2829e-09 3.39164e-11 3.39164e-11 1.12344e-09 1.12344e-09 1.89701e-10 1.89701e-10 -9.41364e-10 -9.41364e-10 -3.41062e-10 -3.41062e-10 7.5653e-10 7.5653e-10 4.31998e-10 4.31998e-10 -5.82358e-10 -5.82358e-10 -4.75162e-10 -4.75162e-10 4.2694e-10 4.2694e-10 4.82618e-10 4.82618e-10 -2.94239e-10 -2.94239e-10 -4.65022e-10 -4.65022e-10 1.85231e-10 1.85231e-10 4.31238e-10 4.31238e-10 -9.88921e-11 -9.88921e-11 -3.88269e-10 -3.88269e-10 3.29992e-11 3.29992e-11 3.41373e-10 3.41373e-10 1.52729e-11 1.52729e-11 -2.94289e-10 -2.94289e-10 -4.89231e-11 -4.89231e-11 2.49506e-10 2.49506e-10 7.08445e-11 7.08445e-11 -2.08531e-10 -2.08531e-10 -8.36572e-11 -8.36572e-11 1.72134e-10 1.72134e-10 8.96269e-11 8.96269e-11 -1.40564e-10 -1.40564e-10 -9.06398e-11 -9.06398e-11 1.13716e-10 1.13716e-10 8.82166e-11 8.82166e-11 -9.12622e-11 -9.12622e-11 -8.35465e-11 -8.35465e-11 7.27572e-11 7.27572e-11 7.75329e-11 7.75329e-11 -5.77027e-11 -5.77027e-11 -7.08413e-11 -7.08413e-11 4.55976e-11 4.55976e-11 6.39455e-11 6.39455e-11 -3.59672e-11 -3.59672e-11 -5.71689e-11 -5.71689e-11 2.83805e-11 2.83805e-11 5.07202e-11 5.07202e-11 -2.24584e-11 -2.24584e-11 -4.47232e-11 -4.47232e-11 1.78747e-11 1.78747e-11 3.92402e-11 3.92402e-11 -1.43549e-11 -1.43549e-11 -3.42907e-11 -3.42907e-11 1.16714e-11 1.16714e-11 2.98656e-11 2.98656e-11 -9.63845e-12 -9.63845e-12 -2.59382e-11 -2.59382e-11 8.10584e-12 8.10584e-12 2.24709e-11 2.24709e-11 -6.95384e-12 -6.95384e-12 -1.94218e-11 -1.94218e-11 6.08788e-12 6.08788e-12 1.67473e-11 1.67473e-11 -5.43396e-12 -5.43396e-12 -1.44054e-11 -1.44054e-11 4.93473e-12 4.93473e-12 1.23566e-11 1.23566e-11 -4.54623e-12 -4.54623e-12 -1.05647e-11 -1.05647e-11 4.23504e-12 4.23504e-12 8.9976e-12 8.9976e-12 -3.97612e-12 -3.97612e-12 -7.62677e-12 -7.62677e-12 3.75095e-12 3.75095e-12 6.42747e-12 6.42747e-12 -3.54607e-12 -3.54607e-12 -5.3783e-12 -5.3783e-12 3.35196e-12 3.35196e-12 4.46091e-12 4.46091e-12 -3.16215e-12 -3.16215e-12 -3.65959e-12 -3.65959e-12 2.97247e-12 2.97247e-12 2.96099e-12 2.96099e-12 -2.78053e-12 -2.78053e-12 -2.3537e-12 -2.3537e-12 2.58528e-12 2.58528e-12 1.82796e-12 1.82796e-12 -2.38671e-12 -2.38671e-12 -1.37539e-12 -1.37539e-12 2.18555e-12 2.18555e-12 9.88705e-13 9.88705e-13 -1.98304e-12 -1.98304e-12 -6.61519e-13 -6.61519e-13 1.78085e-12 1.78085e-12 3.88139e-13 3.88139e-13 -1.58085e-12 -1.58085e-12 -1.63415e-13 -1.63415e-13 1.38504e-12 1.38504e-12 -1.73975e-14 -1.73975e-14 -1.19547e-12 -1.19547e-12 1.58734e-13 1.58734e-13 1.01409e-12 1.01409e-12 -2.64806e-13 -2.64806e-13 -8.42773e-13 -8.42773e-13 3.39653e-13 3.39653e-13 6.83156e-13 6.83156e-13 -3.87181e-13 -3.87181e-13 -5.36656e-13 -5.36656e-13 4.11179e-13 4.11179e-13 4.04399e-13 4.04399e-13 -4.1532e-13 -4.1532e-13 -2.87193e-13 -2.87193e-13 4.03148e-13 4.03148e-13 1.85509e-13 1.85509e-13 -3.78058e-13 -3.78058e-13 -9.94658e-14 -9.94658e-14 3.43265e-13 3.43265e-13 2.88397e-14 2.88397e-14 -3.01769e-13 -3.01769e-13 2.6928e-14 2.6928e-14 2.56316e-13 2.56316e-13 -6.87028e-14 -6.87028e-14 -2.09366e-13 -2.09366e-13 9.76222e-14 9.76222e-14 1.63058e-13 1.63058e-13 -1.1505e-13 -1.1505e-13 -1.19187e-13 -1.19187e-13 1.22524e-13 1.22524e-13 7.91849e-14 7.91849e-14 -1.21698e-13 -1.21698e-13 -4.41141e-14 -4.41141e-14 1.14277e-13 1.14277e-13 1.46717e-14 1.46717e-14 -1.01961e-13 -1.01961e-13 8.7953e-15 8.7953e-15 8.63801e-14 8.63801e-14 -2.6263e-14 -2.6263e-14 -6.90424e-14 -6.90424e-14 3.79935e-14 3.79935e-14 5.1286e-14 5.1286e-14 -4.44889e-14 -4.44889e-14 -3.42421e-14 -3.42421e-14 4.6438e-14 4.6438e-14 1.88086e-14 1.88086e-14 -4.46595e-14 -4.46595e-14 -5.63668e-15 -5.63668e-15 4.0043e-14 4.0043e-14 -4.86984e-15 -4.86984e-15 -3.34915e-14 -3.34915e-14 1.25425e-14 1.25425e-14 2.58696e-14 2.58696e-14 -1.74251e-14 -1.74251e-14 -1.79568e-14 -1.79568e-14 1.97404e-14 1.97404e-14 1.04123e-14 1.04123e-14 -1.98503e-14 -1.98503e-14 -3.74885e-15 -3.74885e-15 1.82112e-14 1.82112e-14 -1.67947e-15 -1.67947e-15 -1.53278e-14 -1.53278e-14 5.67912e-15 5.67912e-15 1.17096e-14 1.17096e-14 -8.20666e-15 -8.20666e-15 -7.83156e-15 -7.83156e-15 9.34898e-15 9.34898e-15 4.10171e-15 4.10171e-15 -9.2959e-15 -9.2959e-15 -8.38638e-16 -8.38638e-16 8.30805e-15 8.30805e-15 -1.74155e-15 -1.74155e-15 -6.68289e-15 -6.68289e-15 3.5278e-15 3.5278e-15 4.72206e-15 4.72206e-15 -4.5072e-15 -4.5072e-15 -2.7025e-15 -2.7025e-15 4.75005e-15 4.75005e-15 8.53885e-16 8.53885e-16 -4.38916e-15 -4.38916e-15 6.56501e-16 6.56501e-16 3.59587e-15 3.59587e-15 -1.73045e-15 -1.73045e-15 -2.55557e-15 -2.55557e-15 2.33756e-15 2.33756e-15 1.44523e-15 1.44523e-15 -2.50691e-15 -2.50691e-15 -4.15078e-16 -4.15078e-16 2.31346e-15 2.31346e-15 -4.23984e-16 -4.23984e-16 -1.86128e-15 -1.86128e-15 1.00662e-15 1.00662e-15 1.26589e-15 1.26589e-15 -1.31294e-15 -1.31294e-15 -6.37925e-16 -6.37925e-16 1.36284e-15 1.36284e-15 7.00175e-17 7.00175e-17 -1.2063e-15 -1.2063e-15 3.72072e-16 3.72072e-16 9.11244e-16 9.11244e-16 -6.5333e-16 -6.5333e-16 -5.51098e-16 -5.51098e-16 7.6864e-16 7.6864e-16 1.93519e-16 1.93519e-16 -7.3795e-16 -7.3795e-16 1.08157e-16 1.08157e-16 5.98707e-16 5.98707e-16 -3.20013e-16 -3.20013e-16 -3.97024e-16 -3.97024e-16 4.2895e-16 4.2895e-16 1.7907e-16 1.7907e-16 -4.40717e-16 -4.40717e-16 1.60869e-17 1.60869e-17 3.75399e-16 3.75399e-16 -1.61282e-16 -1.61282e-16 -2.61439e-16 -2.61439e-16 2.43338e-16 2.43338e-16 1.29364e-16 1.29364e-16 -2.62508e-16 -2.62508e-16 -6.29564e-18 -6.29564e-18 2.29798e-16 2.29798e-16 -8.7999e-17 -8.7999e-17 -1.62951e-16 -1.62951e-16 1.4308e-16 1.4308e-16 8.19979e-17 8.19979e-17 -1.57823e-16 -1.57823e-16 -5.22232e-18 -5.22232e-18 1.3876e-16 1.3876e-16 -5.38216e-17 -5.38216e-17 -9.73322e-17 -9.73322e-17 8.78688e-17 8.78688e-17 4.67573e-17 4.67573e-17 -9.60411e-17 -9.60411e-17 8.55914e-19 8.55914e-19 8.27143e-17 8.27143e-17 -3.66313e-17 -3.66313e-17 -5.55853e-17 -5.55853e-17 5.60159e-17 5.60159e-17 2.34547e-17 2.34547e-17 -5.88049e-17 -5.88049e-17 5.78569e-18 5.78569e-18 4.82834e-17 4.82834e-17 -2.65915e-17 -2.65915e-17 -2.98186e-17 -2.98186e-17 3.64397e-17 3.64397e-17 9.29151e-18 9.29151e-18 -3.57356e-17 -3.57356e-17 8.27381e-18 8.27381e-18 2.71112e-17 2.71112e-17 -1.96272e-17 -1.96272e-17 -1.43783e-17 -1.43783e-17 2.36393e-17 2.36393e-17 1.42815e-18 1.42815e-18 -2.11083e-17 -2.11083e-17 8.66843e-18 8.66843e-18 1.41695e-17 1.41695e-17 -1.41946e-17 -1.41946e-17 -5.51546e-18 -5.51546e-18 1.49014e-17 1.49014e-17 -2.35657e-18 -2.35657e-18 -1.17539e-17 -1.17539e-17 7.70042e-18 7.70042e-18 6.43986e-18 6.43986e-18 -9.78407e-18 -9.78407e-18 -8.02482e-19 -8.02482e-19 8.85269e-18 8.85269e-18 -3.64989e-18 -3.64989e-18 -5.85773e-18 -5.85773e-18 6.05115e-18 6.05115e-18 2.06416e-18 2.06416e-18 -6.26013e-18 -6.26013e-18 1.34194e-18 1.34194e-18 4.7409e-18 4.7409e-18 -3.54518e-18 -3.54518e-18 -2.31042e-18 -2.31042e-18 4.2361e-18 4.2361e-18 -1.5491e-19 -1.5491e-19 -3.58447e-18 -3.58447e-18 1.96823e-18 1.96823e-18 2.0894e-18 2.0894e-18 -2.77866e-18 -2.77866e-18 -3.70709e-19 -3.70709e-19 2.59545e-18 2.59545e-18 -1.02995e-18 -1.02995e-18 -1.70706e-18 -1.70706e-18 1.78496e-18 1.78496e-18 5.38443e-19 5.38443e-19 -1.82772e-18 -1.82772e-18 5.01008e-19 5.01008e-19 1.315e-18 1.315e-18 -1.13334e-18 -1.13334e-18 -5.32173e-19 -5.32173e-19 1.26537e-18 1.26537e-18 -2.19705e-19 -2.19705e-19 -9.76044e-19 -9.76044e-19 7.17842e-19 7.17842e-19 4.54846e-19 4.54846e-19 -8.68387e-19 -8.68387e-19 8.05318e-20 8.05318e-20 7.07022e-19 7.07022e-19 -4.57889e-19 -4.57889e-19 -3.5934e-19 -3.5934e-19 5.94552e-19 5.94552e-19 -1.86223e-20 -1.86223e-20 -5.0389e-19 -5.0389e-19 2.96956e-19 2.96956e-19 2.69816e-19 2.69816e-19 -4.08101e-19 -4.08101e-19 -3.89759e-21 -3.89759e-21 3.55149e-19 3.55149e-19 -1.97469e-19 -1.97469e-19 -1.95154e-19 -1.95154e-19 2.81764e-19 2.81764e-19 8.06561e-21 8.06561e-21 -2.48276e-19 -2.48276e-19 1.35423e-19 1.35423e-19 1.36805e-19 1.36805e-19 -1.96001e-19 -1.96001e-19 -4.94396e-21 -4.94396e-21 1.72341e-19 1.72341e-19 -9.5936e-20 -9.5936e-20 -9.30729e-20 -9.30729e-20 1.37355e-19 1.37355e-19 -4.67025e-23 -4.67025e-23 -1.18719e-19 -1.18719e-19 6.99984e-20 6.99984e-20 6.12712e-20 6.12712e-20 -9.68033e-20 -9.68033e-20 4.52916e-21 4.52916e-21 8.09761e-20 8.09761e-20 -5.22542e-20 -5.22542e-20 -3.87135e-20 -3.87135e-20 6.83891e-20 6.83891e-20 -7.68029e-21 -7.68029e-21 -5.44691e-20 -5.44691e-20 3.9565e-20 3.9565e-20 2.30895e-20 2.30895e-20 -4.82142e-20 -4.82142e-20 9.41299e-21 9.41299e-21 3.59098e-20 3.59098e-20 -3.01083e-20 -3.01083e-20 -1.25528e-20 -1.25528e-20 3.37286e-20 3.37286e-20 -9.94647e-21 -9.94647e-21 -2.29889e-20 -2.29889e-20 2.28284e-20 2.28284e-20 5.68466e-21 5.68466e-21 -2.32531e-20 -2.32531e-20 9.59237e-21 9.59237e-21 1.40848e-20 1.40848e-20 -1.71079e-20 -1.71079e-20 -1.41932e-21 -1.41932e-21 1.56652e-20 1.56652e-20 -8.65612e-21 -8.65612e-21 -8.05244e-21 -8.05244e-21 1.25754e-20 1.25754e-20 -1.03417e-21 -1.03417e-21 -1.01976e-2