# vtk DataFile Version 3.0
#This file was generated by the deal.II library on 2020/8/11 at 22:17:48
ASCII
DATASET UNSTRUCTURED_GRID

POINTS 4096 double
0.5 0 0
0.743896 0 0
0.743896 0 0
0.987793 0 0
0.987793 0 0
1.23169 0 0
1.23169 0 0
1.47559 0 0
1.47559 0 0
1.71948 0 0
1.71948 0 0
1.96338 0 0
1.96338 0 0
2.20728 0 0
2.20728 0 0
2.45117 0 0
2.45117 0 0
2.69507 0 0
2.69507 0 0
2.93896 0 0
2.93896 0 0
3.18286 0 0
3.18286 0 0
3.42676 0 0
3.42676 0 0
3.67065 0 0
3.67065 0 0
3.91455 0 0
3.91455 0 0
4.15845 0 0
4.15845 0 0
4.40234 0 0
4.40234 0 0
4.64624 0 0
4.64624 0 0
4.89014 0 0
4.89014 0 0
5.13403 0 0
5.13403 0 0
5.37793 0 0
5.37793 0 0
5.62183 0 0
5.62183 0 0
5.86572 0 0
5.86572 0 0
6.10962 0 0
6.10962 0 0
6.35352 0 0
6.35352 0 0
6.59741 0 0
6.59741 0 0
6.84131 0 0
6.84131 0 0
7.08521 0 0
7.08521 0 0
7.3291 0 0
7.3291 0 0
7.573 0 0
7.573 0 0
7.81689 0 0
7.81689 0 0
8.06079 0 0
8.06079 0 0
8.30469 0 0
8.30469 0 0
8.54858 0 0
8.54858 0 0
8.79248 0 0
8.79248 0 0
9.03638 0 0
9.03638 0 0
9.28027 0 0
9.28027 0 0
9.52417 0 0
9.52417 0 0
9.76807 0 0
9.76807 0 0
10.012 0 0
10.012 0 0
10.2559 0 0
10.2559 0 0
10.4998 0 0
10.4998 0 0
10.7437 0 0
10.7437 0 0
10.9875 0 0
10.9875 0 0
11.2314 0 0
11.2314 0 0
11.4753 0 0
11.4753 0 0
11.7192 0 0
11.7192 0 0
11.9631 0 0
11.9631 0 0
12.207 0 0
12.207 0 0
12.4509 0 0
12.4509 0 0
12.6948 0 0
12.6948 0 0
12.9387 0 0
12.9387 0 0
13.1826 0 0
13.1826 0 0
13.4265 0 0
13.4265 0 0
13.6704 0 0
13.6704 0 0
13.9143 0 0
13.9143 0 0
14.1582 0 0
14.1582 0 0
14.4021 0 0
14.4021 0 0
14.646 0 0
14.646 0 0
14.8899 0 0
14.8899 0 0
15.1338 0 0
15.1338 0 0
15.3777 0 0
15.3777 0 0
15.6216 0 0
15.6216 0 0
15.8655 0 0
15.8655 0 0
16.1094 0 0
16.1094 0 0
16.3533 0 0
16.3533 0 0
16.5972 0 0
16.5972 0 0
16.8411 0 0
16.8411 0 0
17.085 0 0
17.085 0 0
17.3289 0 0
17.3289 0 0
17.5728 0 0
17.5728 0 0
17.8167 0 0
17.8167 0 0
18.0605 0 0
18.0605 0 0
18.3044 0 0
18.3044 0 0
18.5483 0 0
18.5483 0 0
18.7922 0 0
18.7922 0 0
19.0361 0 0
19.0361 0 0
19.28 0 0
19.28 0 0
19.5239 0 0
19.5239 0 0
19.7678 0 0
19.7678 0 0
20.0117 0 0
20.0117 0 0
20.2556 0 0
20.2556 0 0
20.4995 0 0
20.4995 0 0
20.7434 0 0
20.7434 0 0
20.9873 0 0
20.9873 0 0
21.2312 0 0
21.2312 0 0
21.4751 0 0
21.4751 0 0
21.719 0 0
21.719 0 0
21.9629 0 0
21.9629 0 0
22.2068 0 0
22.2068 0 0
22.4507 0 0
22.4507 0 0
22.6946 0 0
22.6946 0 0
22.9385 0 0
22.9385 0 0
23.1824 0 0
23.1824 0 0
23.4263 0 0
23.4263 0 0
23.6702 0 0
23.6702 0 0
23.9141 0 0
23.9141 0 0
24.158 0 0
24.158 0 0
24.4019 0 0
24.4019 0 0
24.6458 0 0
24.6458 0 0
24.8896 0 0
24.8896 0 0
25.1335 0 0
25.1335 0 0
25.3774 0 0
25.3774 0 0
25.6213 0 0
25.6213 0 0
25.8652 0 0
25.8652 0 0
26.1091 0 0
26.1091 0 0
26.353 0 0
26.353 0 0
26.5969 0 0
26.5969 0 0
26.8408 0 0
26.8408 0 0
27.0847 0 0
27.0847 0 0
27.3286 0 0
27.3286 0 0
27.5725 0 0
27.5725 0 0
27.8164 0 0
27.8164 0 0
28.0603 0 0
28.0603 0 0
28.3042 0 0
28.3042 0 0
28.5481 0 0
28.5481 0 0
28.792 0 0
28.792 0 0
29.0359 0 0
29.0359 0 0
29.2798 0 0
29.2798 0 0
29.5237 0 0
29.5237 0 0
29.7676 0 0
29.7676 0 0
30.0115 0 0
30.0115 0 0
30.2554 0 0
30.2554 0 0
30.4993 0 0
30.4993 0 0
30.7432 0 0
30.7432 0 0
30.9871 0 0
30.9871 0 0
31.231 0 0
31.231 0 0
31.4749 0 0
31.4749 0 0
31.7188 0 0
31.7188 0 0
31.9626 0 0
31.9626 0 0
32.2065 0 0
32.2065 0 0
32.4504 0 0
32.4504 0 0
32.6943 0 0
32.6943 0 0
32.9382 0 0
32.9382 0 0
33.1821 0 0
33.1821 0 0
33.426 0 0
33.426 0 0
33.6699 0 0
33.6699 0 0
33.9138 0 0
33.9138 0 0
34.1577 0 0
34.1577 0 0
34.4016 0 0
34.4016 0 0
34.6455 0 0
34.6455 0 0
34.8894 0 0
34.8894 0 0
35.1333 0 0
35.1333 0 0
35.3772 0 0
35.3772 0 0
35.6211 0 0
35.6211 0 0
35.865 0 0
35.865 0 0
36.1089 0 0
36.1089 0 0
36.3528 0 0
36.3528 0 0
36.5967 0 0
36.5967 0 0
36.8406 0 0
36.8406 0 0
37.0845 0 0
37.0845 0 0
37.3284 0 0
37.3284 0 0
37.5723 0 0
37.5723 0 0
37.8162 0 0
37.8162 0 0
38.0601 0 0
38.0601 0 0
38.304 0 0
38.304 0 0
38.5479 0 0
38.5479 0 0
38.7917 0 0
38.7917 0 0
39.0356 0 0
39.0356 0 0
39.2795 0 0
39.2795 0 0
39.5234 0 0
39.5234 0 0
39.7673 0 0
39.7673 0 0
40.0112 0 0
40.0112 0 0
40.2551 0 0
40.2551 0 0
40.499 0 0
40.499 0 0
40.7429 0 0
40.7429 0 0
40.9868 0 0
40.9868 0 0
41.2307 0 0
41.2307 0 0
41.4746 0 0
41.4746 0 0
41.7185 0 0
41.7185 0 0
41.9624 0 0
41.9624 0 0
42.2063 0 0
42.2063 0 0
42.4502 0 0
42.4502 0 0
42.6941 0 0
42.6941 0 0
42.938 0 0
42.938 0 0
43.1819 0 0
43.1819 0 0
43.4258 0 0
43.4258 0 0
43.6697 0 0
43.6697 0 0
43.9136 0 0
43.9136 0 0
44.1575 0 0
44.1575 0 0
44.4014 0 0
44.4014 0 0
44.6453 0 0
44.6453 0 0
44.8892 0 0
44.8892 0 0
45.1331 0 0
45.1331 0 0
45.377 0 0
45.377 0 0
45.6208 0 0
45.6208 0 0
45.8647 0 0
45.8647 0 0
46.1086 0 0
46.1086 0 0
46.3525 0 0
46.3525 0 0
46.5964 0 0
46.5964 0 0
46.8403 0 0
46.8403 0 0
47.0842 0 0
47.0842 0 0
47.3281 0 0
47.3281 0 0
47.572 0 0
47.572 0 0
47.8159 0 0
47.8159 0 0
48.0598 0 0
48.0598 0 0
48.3037 0 0
48.3037 0 0
48.5476 0 0
48.5476 0 0
48.7915 0 0
48.7915 0 0
49.0354 0 0
49.0354 0 0
49.2793 0 0
49.2793 0 0
49.5232 0 0
49.5232 0 0
49.7671 0 0
49.7671 0 0
50.011 0 0
50.011 0 0
50.2549 0 0
50.2549 0 0
50.4988 0 0
50.4988 0 0
50.7427 0 0
50.7427 0 0
50.9866 0 0
50.9866 0 0
51.2305 0 0
51.2305 0 0
51.4744 0 0
51.4744 0 0
51.7183 0 0
51.7183 0 0
51.9622 0 0
51.9622 0 0
52.2061 0 0
52.2061 0 0
52.45 0 0
52.45 0 0
52.6938 0 0
52.6938 0 0
52.9377 0 0
52.9377 0 0
53.1816 0 0
53.1816 0 0
53.4255 0 0
53.4255 0 0
53.6694 0 0
53.6694 0 0
53.9133 0 0
53.9133 0 0
54.1572 0 0
54.1572 0 0
54.4011 0 0
54.4011 0 0
54.645 0 0
54.645 0 0
54.8889 0 0
54.8889 0 0
55.1328 0 0
55.1328 0 0
55.3767 0 0
55.3767 0 0
55.6206 0 0
55.6206 0 0
55.8645 0 0
55.8645 0 0
56.1084 0 0
56.1084 0 0
56.3523 0 0
56.3523 0 0
56.5962 0 0
56.5962 0 0
56.8401 0 0
56.8401 0 0
57.084 0 0
57.084 0 0
57.3279 0 0
57.3279 0 0
57.5718 0 0
57.5718 0 0
57.8157 0 0
57.8157 0 0
58.0596 0 0
58.0596 0 0
58.3035 0 0
58.3035 0 0
58.5474 0 0
58.5474 0 0
58.7913 0 0
58.7913 0 0
59.0352 0 0
59.0352 0 0
59.2791 0 0
59.2791 0 0
59.5229 0 0
59.5229 0 0
59.7668 0 0
59.7668 0 0
60.0107 0 0
60.0107 0 0
60.2546 0 0
60.2546 0 0
60.4985 0 0
60.4985 0 0
60.7424 0 0
60.7424 0 0
60.9863 0 0
60.9863 0 0
61.2302 0 0
61.2302 0 0
61.4741 0 0
61.4741 0 0
61.718 0 0
61.718 0 0
61.9619 0 0
61.9619 0 0
62.2058 0 0
62.2058 0 0
62.4497 0 0
62.4497 0 0
62.6936 0 0
62.6936 0 0
62.9375 0 0
62.9375 0 0
63.1814 0 0
63.1814 0 0
63.4253 0 0
63.4253 0 0
63.6692 0 0
63.6692 0 0
63.9131 0 0
63.9131 0 0
64.157 0 0
64.157 0 0
64.4009 0 0
64.4009 0 0
64.6448 0 0
64.6448 0 0
64.8887 0 0
64.8887 0 0
65.1326 0 0
65.1326 0 0
65.3765 0 0
65.3765 0 0
65.6204 0 0
65.6204 0 0
65.8643 0 0
65.8643 0 0
66.1082 0 0
66.1082 0 0
66.3521 0 0
66.3521 0 0
66.5959 0 0
66.5959 0 0
66.8398 0 0
66.8398 0 0
67.0837 0 0
67.0837 0 0
67.3276 0 0
67.3276 0 0
67.5715 0 0
67.5715 0 0
67.8154 0 0
67.8154 0 0
68.0593 0 0
68.0593 0 0
68.3032 0 0
68.3032 0 0
68.5471 0 0
68.5471 0 0
68.791 0 0
68.791 0 0
69.0349 0 0
69.0349 0 0
69.2788 0 0
69.2788 0 0
69.5227 0 0
69.5227 0 0
69.7666 0 0
69.7666 0 0
70.0105 0 0
70.0105 0 0
70.2544 0 0
70.2544 0 0
70.4983 0 0
70.4983 0 0
70.7422 0 0
70.7422 0 0
70.9861 0 0
70.9861 0 0
71.23 0 0
71.23 0 0
71.4739 0 0
71.4739 0 0
71.7178 0 0
71.7178 0 0
71.9617 0 0
71.9617 0 0
72.2056 0 0
72.2056 0 0
72.4495 0 0
72.4495 0 0
72.6934 0 0
72.6934 0 0
72.9373 0 0
72.9373 0 0
73.1812 0 0
73.1812 0 0
73.425 0 0
73.425 0 0
73.6689 0 0
73.6689 0 0
73.9128 0 0
73.9128 0 0
74.1567 0 0
74.1567 0 0
74.4006 0 0
74.4006 0 0
74.6445 0 0
74.6445 0 0
74.8884 0 0
74.8884 0 0
75.1323 0 0
75.1323 0 0
75.3762 0 0
75.3762 0 0
75.6201 0 0
75.6201 0 0
75.864 0 0
75.864 0 0
76.1079 0 0
76.1079 0 0
76.3518 0 0
76.3518 0 0
76.5957 0 0
76.5957 0 0
76.8396 0 0
76.8396 0 0
77.0835 0 0
77.0835 0 0
77.3274 0 0
77.3274 0 0
77.5713 0 0
77.5713 0 0
77.8152 0 0
77.8152 0 0
78.0591 0 0
78.0591 0 0
78.303 0 0
78.303 0 0
78.5469 0 0
78.5469 0 0
78.7908 0 0
78.7908 0 0
79.0347 0 0
79.0347 0 0
79.2786 0 0
79.2786 0 0
79.5225 0 0
79.5225 0 0
79.7664 0 0
79.7664 0 0
80.0103 0 0
80.0103 0 0
80.2542 0 0
80.2542 0 0
80.498 0 0
80.498 0 0
80.7419 0 0
80.7419 0 0
80.9858 0 0
80.9858 0 0
81.2297 0 0
81.2297 0 0
81.4736 0 0
81.4736 0 0
81.7175 0 0
81.7175 0 0
81.9614 0 0
81.9614 0 0
82.2053 0 0
82.2053 0 0
82.4492 0 0
82.4492 0 0
82.6931 0 0
82.6931 0 0
82.937 0 0
82.937 0 0
83.1809 0 0
83.1809 0 0
83.4248 0 0
83.4248 0 0
83.6687 0 0
83.6687 0 0
83.9126 0 0
83.9126 0 0
84.1565 0 0
84.1565 0 0
84.4004 0 0
84.4004 0 0
84.6443 0 0
84.6443 0 0
84.8882 0 0
84.8882 0 0
85.1321 0 0
85.1321 0 0
85.376 0 0
85.376 0 0
85.6199 0 0
85.6199 0 0
85.8638 0 0
85.8638 0 0
86.1077 0 0
86.1077 0 0
86.3516 0 0
86.3516 0 0
86.5955 0 0
86.5955 0 0
86.8394 0 0
86.8394 0 0
87.0833 0 0
87.0833 0 0
87.3271 0 0
87.3271 0 0
87.571 0 0
87.571 0 0
87.8149 0 0
87.8149 0 0
88.0588 0 0
88.0588 0 0
88.3027 0 0
88.3027 0 0
88.5466 0 0
88.5466 0 0
88.7905 0 0
88.7905 0 0
89.0344 0 0
89.0344 0 0
89.2783 0 0
89.2783 0 0
89.5222 0 0
89.5222 0 0
89.7661 0 0
89.7661 0 0
90.01 0 0
90.01 0 0
90.2539 0 0
90.2539 0 0
90.4978 0 0
90.4978 0 0
90.7417 0 0
90.7417 0 0
90.9856 0 0
90.9856 0 0
91.2295 0 0
91.2295 0 0
91.4734 0 0
91.4734 0 0
91.7173 0 0
91.7173 0 0
91.9612 0 0
91.9612 0 0
92.2051 0 0
92.2051 0 0
92.449 0 0
92.449 0 0
92.6929 0 0
92.6929 0 0
92.9368 0 0
92.9368 0 0
93.1807 0 0
93.1807 0 0
93.4246 0 0
93.4246 0 0
93.6685 0 0
93.6685 0 0
93.9124 0 0
93.9124 0 0
94.1562 0 0
94.1562 0 0
94.4001 0 0
94.4001 0 0
94.644 0 0
94.644 0 0
94.8879 0 0
94.8879 0 0
95.1318 0 0
95.1318 0 0
95.3757 0 0
95.3757 0 0
95.6196 0 0
95.6196 0 0
95.8635 0 0
95.8635 0 0
96.1074 0 0
96.1074 0 0
96.3513 0 0
96.3513 0 0
96.5952 0 0
96.5952 0 0
96.8391 0 0
96.8391 0 0
97.083 0 0
97.083 0 0
97.3269 0 0
97.3269 0 0
97.5708 0 0
97.5708 0 0
97.8147 0 0
97.8147 0 0
98.0586 0 0
98.0586 0 0
98.3025 0 0
98.3025 0 0
98.5464 0 0
98.5464 0 0
98.7903 0 0
98.7903 0 0
99.0342 0 0
99.0342 0 0
99.2781 0 0
99.2781 0 0
99.522 0 0
99.522 0 0
99.7659 0 0
99.7659 0 0
100.01 0 0
100.01 0 0
100.254 0 0
100.254 0 0
100.498 0 0
100.498 0 0
100.741 0 0
100.741 0 0
100.985 0 0
100.985 0 0
101.229 0 0
101.229 0 0
101.473 0 0
[...]
POINT_DATA 4096
SCALARS solution_0 double 1
LOOKUP_TABLE default
5.09891e-09 -6.09543e+06 -6.09543e+06 -2.40189e+06 -2.40189e+06 -1.56766e+06 -1.56766e+06 -1.15879e+06 -1.15879e+06 -906826 -906826 -733301 -733301 -605757 -605757 -507946 -507946 -430683 -430683 -368310 -368310 -317120 -317120 -274559 -274559 -238805 -238805 -208512 -208512 -182665 -182665 -160480 -160480 -141342 -141342 -124761 -124761 -110339 -110339 -97755.2 -97755.2 -86742.1 -86742.1 -77078.7 -77078.7 -68579.9 -68579.9 -61089.8 -61089.8 -54476.2 -54476.2 -48626.6 -48626.6 -43444.6 -43444.6 -38847.6 -38847.6 -34764.1 -34764.1 -31132.5 -31132.5 -27899.3 -27899.3 -25017.6 -25017.6 -22447 -22447 -20151.7 -20151.7 -18100.7 -18100.7 -16266.4 -16266.4 -14624.8 -14624.8 -13154.8 -13154.8 -11837.4 -11837.4 -10656.2 -10656.2 -9596.49 -9596.49 -8645.25 -8645.25 -7790.96 -7790.96 -7023.38 -7023.38 -6333.38 -6333.38 -5712.86 -5712.86 -5154.61 -5154.61 -4652.16 -4652.16 -4199.79 -4199.79 -3792.35 -3792.35 -3425.25 -3425.25 -3094.41 -3094.41 -2796.13 -2796.13 -2527.15 -2527.15 -2284.51 -2284.51 -2065.57 -2065.57 -1867.97 -1867.97 -1689.59 -1689.59 -1528.51 -1528.51 -1383.02 -1383.02 -1251.59 -1251.59 -1132.83 -1132.83 -1025.5 -1025.5 -928.473 -928.473 -840.75 -840.75 -761.423 -761.423 -689.675 -689.675 -624.77 -624.77 -566.046 -566.046 -512.906 -512.906 -464.811 -464.811 -421.275 -421.275 -381.86 -381.86 -346.172 -346.172 -313.853 -313.853 -284.582 -284.582 -258.067 -258.067 -234.045 -234.045 -212.281 -212.281 -192.558 -192.558 -174.684 -174.684 -158.484 -158.484 -143.798 -143.798 -130.485 -130.485 -118.414 -118.414 -107.469 -107.469 -97.5429 -97.5429 -88.5406 -88.5406 -80.3754 -80.3754 -72.9685 -72.9685 -66.2491 -66.2491 -60.1527 -60.1527 -54.6212 -54.6212 -49.6017 -49.6017 -45.0464 -45.0464 -40.9122 -40.9122 -37.1598 -37.1598 -33.7537 -33.7537 -30.6617 -30.6617 -27.8546 -27.8546 -25.306 -25.306 -22.9919 -22.9919 -20.8905 -20.8905 -18.9823 -18.9823 -17.2494 -17.2494 -15.6755 -15.6755 -14.2459 -14.2459 -12.9474 -12.9474 -11.7678 -11.7678 -10.6963 -10.6963 -9.72273 -9.72273 -8.83823 -8.83823 -8.03456 -8.03456 -7.30431 -7.30431 -6.6407 -6.6407 -6.03764 -6.03764 -5.48953 -5.48953 -4.99134 -4.99134 -4.53844 -4.53844 -4.12665 -4.12665 -3.75213 -3.75213 -3.41138 -3.41138 -3.10115 -3.10115 -2.81847 -2.81847 -2.56055 -2.56055 -2.32481 -2.32481 -2.10879 -2.10879 -1.91021 -1.91021 -1.72691 -1.72691 -1.5569 -1.5569 -1.3984 -1.3984 -1.24985 -1.24985 -1.11003 -1.11003 -0.978058 -0.978058 -0.853494 -0.853494 -0.736305 -0.736305 -0.626839 -0.626839 -0.525708 -0.525708 -0.433621 -0.433621 -0.351165 -0.351165 -0.278593 -0.278593 -0.215663 -0.215663 -0.161588 -0.161588 -0.115135 -0.115135 -0.0748744 -0.0748744 -0.039521 -0.039521 -0.00827674 -0.00827674 0.018949 0.018949 0.0415508 0.0415508 0.058513 0.058513 0.0689237 0.0689237 0.0725771 0.0725771 0.0704726 0.0704726 0.0650361 0.0650361 0.0599831 0.0599831 0.0598788 0.0598788 0.0695702 0.0695702 0.0937087 0.0937087 0.136523 0.136523 0.201867 0.201867 0.293411 0.293411 0.41479 0.41479 0.569544 0.569544 0.76081 0.76081 0.990865 0.990865 1.26061 1.26061 1.56904 1.56904 1.9126 1.9126 2.28427 2.28427 2.67239 2.67239 3.0597 3.0597 3.42295 3.42295 3.73409 3.73409 3.96304 3.96304 4.08201 4.08201 4.07029 4.07029 3.91828 3.91828 3.62994 3.62994 3.2229 3.2229 2.72665 2.72665 2.1792 2.1792 1.62275 1.62275 1.09897 1.09897 0.644056 0.644056 0.284223 0.284223 0.0323157 0.0323157 -0.113598 -0.113598 -0.168988 -0.168988 -0.15896 -0.15896 -0.112452 -0.112452 -0.055995 -0.055995 -0.00874559 -0.00874559 0.0198475 0.0198475 0.0293155 0.0293155 0.0250744 0.0250744 0.0144901 0.0144901 0.00372173 0.00372173 -0.00373368 -0.00373368 -0.00690073 -0.00690073 -0.00641395 -0.00641395 -0.00366171 -0.00366171 -0.000278892 -0.000278892 0.00222032 0.00222032 0.00290048 0.00290048 0.00181487 0.00181487 -3.0347e-05 -3.0347e-05 -0.00132703 -0.00132703 -0.00135111 -0.00135111 -0.00040256 -0.00040256 0.000563891 0.000563891 0.000786868 0.000786868 0.000279704 0.000279704 -0.000327788 -0.000327788 -0.000460284 -0.000460284 -0.000107875 -0.000107875 0.000273363 0.000273363 0.000289339 0.000289339 -9.8726e-06 -9.8726e-06 -0.000253233 -0.000253233 -0.000184389 -0.000184389 8.10511e-05 8.10511e-05 0.00022656 0.00022656 0.000103627 0.000103627 -0.00012213 -0.00012213 -0.000186869 -0.000186869 -3.41057e-05 -3.41057e-05 0.000140662 0.000140662 0.000135753 0.000135753 -2.44565e-05 -2.44565e-05 -0.000138103 -0.000138103 -7.7532e-05 -7.7532e-05 6.71452e-05 6.71452e-05 0.000115028 0.000115028 1.95144e-05 1.95144e-05 -8.80222e-05 -8.80222e-05 -7.52682e-05 -7.52682e-05 2.83598e-05 2.83598e-05 8.40377e-05 8.40377e-05 2.78424e-05 2.78424e-05 -5.63395e-05 -5.63395e-05 -5.84193e-05 -5.84193e-05 1.4427e-05 1.4427e-05 5.93772e-05 5.93772e-05 2.1549e-05 2.1549e-05 -3.9522e-05 -3.9522e-05 -4.0696e-05 -4.0696e-05 1.21381e-05 1.21381e-05 4.18767e-05 4.18767e-05 1.15706e-05 1.15706e-05 -3.03418e-05 -3.03418e-05 -2.55349e-05 -2.55349e-05 1.34969e-05 1.34969e-05 2.88144e-05 2.88144e-05 2.28982e-06 2.28982e-06 -2.38984e-05 -2.38984e-05 -1.3209e-05 -1.3209e-05 1.46385e-05 1.46385e-05 1.8107e-05 1.8107e-05 -4.63827e-06 -4.63827e-06 -1.77623e-05 -1.77623e-05 -3.6079e-06 -3.6079e-06 1.39263e-05 1.39263e-05 8.91044e-06 8.91044e-06 -8.50824e-06 -8.50824e-06 -1.11564e-05 -1.11564e-05 3.06503e-06 3.06503e-06 1.09098e-05 1.09098e-05 1.40671e-06 1.40671e-06 -9.01986e-06 -9.01986e-06 -4.45968e-06 -4.45968e-06 6.33202e-06 6.33202e-06 6.06737e-06 6.06737e-06 -3.52241e-06 -3.52241e-06 -6.46097e-06 -6.46097e-06 1.03876e-06 1.03876e-06 5.98368e-06 5.98368e-06 8.88022e-07 8.88022e-07 -4.98577e-06 -4.98577e-06 -2.19601e-06 -2.19601e-06 3.76345e-06 3.76345e-06 2.93411e-06 2.93411e-06 -2.53365e-06 -2.53365e-06 -3.20975e-06 -3.20975e-06 1.43328e-06 1.43328e-06 3.14922e-06 3.14922e-06 -5.31876e-07 -5.31876e-07 -2.87225e-06 -2.87225e-06 -1.50674e-07 -1.50674e-07 2.47846e-06 2.47846e-06 6.26541e-07 6.26541e-07 -2.04274e-06 -2.04274e-06 -9.25381e-07 -9.25381e-07 1.61608e-06 1.61608e-06 1.08364e-06 1.08364e-06 -1.22925e-06 -1.22925e-06 -1.13756e-06 -1.13756e-06 8.97637e-07 8.97637e-07 1.11927e-06 1.11927e-06 -6.25781e-07 -6.25781e-07 -1.05505e-06 -1.05505e-06 4.11376e-07 4.11376e-07 9.65051e-07 9.65051e-07 -2.48271e-07 -2.48271e-07 -8.63803e-07 -8.63803e-07 1.28626e-07 1.28626e-07 7.61169e-07 7.61169e-07 -4.4319e-08 -4.4319e-08 -6.63341e-07 -6.63341e-07 -1.22268e-08 -1.22268e-08 5.73799e-07 5.73799e-07 4.76248e-08 4.76248e-08 -4.94118e-07 -4.94118e-07 -6.73798e-08 -6.73798e-08 4.24614e-07 4.24614e-07 7.59088e-08 7.59088e-08 -3.64825e-07 -3.64825e-07 -7.66512e-08 -7.66512e-08 3.1386e-07 3.1386e-07 7.22169e-08 7.22169e-08 -2.70633e-07 -2.70633e-07 -6.45418e-08 -6.45418e-08 2.34019e-07 2.34019e-07 5.50321e-08 5.50321e-08 -2.02944e-07 -2.02944e-07 -4.46888e-08 -4.46888e-08 1.76437e-07 1.76437e-07 3.42109e-08 3.42109e-08 -1.53653e-07 -1.53653e-07 -2.40763e-08 -2.40763e-08 1.33881e-07 1.33881e-07 1.46044e-08 1.46044e-08 -1.16533e-07 -1.16533e-07 -6.00191e-09 -6.00191e-09 1.01141e-07 1.01141e-07 -1.60332e-09 -1.60332e-09 -8.73361e-08 -8.73361e-08 8.13936e-09 8.13936e-09 7.48415e-08 7.48415e-08 -1.35744e-08 -1.35744e-08 -6.34542e-08 -6.34542e-08 1.79064e-08 1.79064e-08 5.30336e-08 5.30336e-08 -2.1157e-08 -2.1157e-08 -4.34892e-08 -4.34892e-08 2.33673e-08 2.33673e-08 3.47693e-08 3.47693e-08 -2.45957e-08 -2.45957e-08 -2.68511e-08 -2.68511e-08 2.49165e-08 2.49165e-08 1.97316e-08 1.97316e-08 -2.44186e-08 -2.44186e-08 -1.34198e-08 -1.34198e-08 2.32039e-08 2.32039e-08 7.92874e-09 7.92874e-09 -2.1386e-08 -2.1386e-08 -3.27016e-09 -3.27016e-09 1.90881e-08 1.90881e-08 -5.51559e-10 -5.51559e-10 -1.64402e-08 -1.64402e-08 3.54361e-09 3.54361e-09 1.35761e-08 1.35761e-08 -5.7284e-09 -5.7284e-09 -1.06293e-08 -1.06293e-08 7.14604e-09 7.14604e-09 7.72911e-09 7.72911e-09 -7.85577e-09 -7.85577e-09 -4.99557e-09 -4.99557e-09 7.93608e-09 7.93608e-09 2.5346e-09 2.5346e-09 -7.48336e-09 -7.48336e-09 -4.32987e-10 -4.32987e-10 6.60905e-09 6.60905e-09 -1.24612e-09 -1.24612e-09 -5.4352e-09 -5.4352e-09 2.46683e-09 2.46683e-09 4.0886e-09 4.0886e-09 -3.22275e-09 -3.22275e-09 -2.69373e-09 -2.69373e-09 3.53722e-09 3.53722e-09 1.36519e-09 1.36519e-09 -3.4614e-09 -3.4614e-09 -2.00103e-10 -2.00103e-10 3.06981e-09 3.06981e-09 -7.28408e-10 -7.28408e-10 -2.45372e-09 -2.45372e-09 1.37604e-09 1.37604e-09 1.7126e-09 1.7126e-09 -1.7295e-09 -1.7295e-09 -9.4472e-10 -9.4472e-10 1.80574e-09 1.80574e-09 2.37755e-10 2.37755e-10 -1.64792e-09 -1.64792e-09 3.39392e-10 3.39392e-10 1.31861e-09 1.31861e-09 -7.42417e-10 -7.42417e-10 -8.9097e-10 -8.9097e-10 9.54319e-10 9.54319e-10 4.38959e-10 4.38959e-10 -9.84582e-10 -9.84582e-10 -2.80522e-11 -2.80522e-11 8.6496e-10 8.6496e-10 -2.92346e-10 -2.92346e-10 -6.42548e-10 -6.42548e-10 4.93674e-10 4.93674e-10 3.71258e-10 3.71258e-10 -5.69589e-10 -5.69589e-10 -1.03054e-10 -1.03054e-10 5.33894e-10 5.33894e-10 -1.19653e-10 -1.19653e-10 -4.1557e-10 -4.1557e-10 2.69307e-10 2.69307e-10 2.51918e-10 2.51918e-10 -3.35501e-10 -3.35501e-10 -8.11247e-11 -8.11247e-11 3.24123e-10 3.24123e-10 -6.44318e-11 -6.44318e-11 -2.53783e-10 -2.53783e-10 1.63e-10 1.63e-10 1.5043e-10 1.5043e-10 -2.05721e-10 -2.05721e-10 -4.13439e-11 -4.13439e-11 1.96186e-10 1.96186e-10 -5.03117e-11 -5.03117e-11 -1.47662e-10 -1.47662e-10 1.09362e-10 1.09362e-10 7.88068e-11 7.88068e-11 -1.30345e-10 -1.30345e-10 -8.90838e-12 -8.90838e-12 1.16985e-10 1.16985e-10 -4.63081e-11 -4.63081e-11 -7.98007e-11 -7.98007e-11 7.74831e-11 7.74831e-11 3.25996e-11 3.25996e-11 -8.26026e-11 -8.26026e-11 1.12326e-11 1.12326e-11 6.61657e-11 6.61657e-11 -4.17775e-11 -4.17775e-11 -3.69677e-11 -3.69677e-11 5.43421e-11 5.43421e-11 5.1992e-12 5.1992e-12 -4.96789e-11 -4.96789e-11 2.03423e-11 2.03423e-11 3.28176e-11 3.28176e-11 -3.4252e-11 -3.4252e-11 -1.09894e-11 -1.09894e-11 3.53222e-11 3.53222e-11 -8.69495e-12 -8.69495e-12 -2.61037e-11 -2.61037e-11 2.11626e-11 2.11626e-11 1.1513e-11 1.1513e-11 -2.44225e-11 -2.44225e-11 2.99459e-12 2.99459e-12 1.95662e-11 1.95662e-11 -1.31067e-11 -1.31067e-11 -9.87499e-12 -9.87499e-12 1.67216e-11 1.67216e-11 -5.76696e-13 -5.76696e-13 -1.41709e-11 -1.41709e-11 8.32297e-12 8.32297e-12 7.65651e-12 7.65651e-12 -1.14806e-11 -1.14806e-11 -1.93196e-13 -1.93196e-13 1.00511e-11 1.00511e-11 -5.52649e-12 -5.52649e-12 -5.55594e-12 -5.55594e-12 7.96293e-12 7.96293e-12 2.31155e-13 2.31155e-13 -7.02526e-12 -7.02526e-12 3.87773e-12 3.87773e-12 3.81717e-12 3.81717e-12 -5.5912e-12 -5.5912e-12 -1.08922e-14 -1.08922e-14 4.8422e-12 4.8422e-12 -2.8666e-12 -2.8666e-12 -2.47655e-12 -2.47655e-12 3.96226e-12 3.96226e-12 -2.43945e-13 -2.43945e-13 -3.27702e-12 -3.27702e-12 2.20004e-12 2.20004e-12 1.49032e-12 1.49032e-12 -2.81293e-12 -2.81293e-12 4.41722e-13 4.41722e-13 2.15683e-12 2.15683e-12 -1.71806e-12 -1.71806e-12 -7.93344e-13 -7.93344e-13 1.97885e-12 1.97885e-12 -5.5618e-13 -5.5618e-13 -1.35783e-12 -1.35783e-12 1.3382e-12 1.3382e-12 3.2268e-13 3.2268e-13 -1.36014e-12 -1.36014e-12 5.91122e-13 5.91122e-13 7.94013e-13 7.94013e-13 -1.02126e-12 -1.02126e-12 -2.46492e-14 -2.46492e-14 8.96713e-13 8.96713e-13 -5.6262e-13 -5.6262e-13 -4.05519e-13 -4.05519e-13 7.51002e-13 7.51002e-13 -1.44654e-13 -1.44654e-13 -5.51839e-13 -5.51839e-13 4.90398e-13 4.90398e-13 1.49497e-13 1.49497e-13 -5.22388e-13 -5.22388e-13 2.20942e-13 2.20942e-13 3.01701e-13 3.01701e-13 -3.93739e-13 -3.93739e-13 6.35564e-15 6.35564e-15 3.34898e-13 3.34898e-13 -2.33465e-13 -2.33465e-13 -1.29028e-13 -1.29028e-13 2.89503e-13 2.89503e-13 -8.78704e-14 -8.78704e-14 -1.88739e-13 -1.88739e-13 2.06233e-13 2.06233e-13 1.94223e-14 1.94223e-14 -1.91104e-13 -1.91104e-13 1.16708e-13 1.16708e-13 8.28015e-14 8.28015e-14 -1.58645e-13 -1.58645e-13 4.04959e-14 4.04959e-14 1.0795e-13 1.0795e-13 -1.11372e-13 -1.11372e-13 -1.37479e-14 -1.37479e-14 1.0566e-13 1.0566e-13 -6.37136e-14 -6.37136e-14 -4.52477e-14 -4.52477e-14 8.73674e-14 8.73674e-14 -2.40633e-14 -2.40633e-14 -5.77799e-14 -5.77799e-14 6.26034e-14 6.26034e-14 4.19663e-15 4.19663e-15 -5.69249e-14 -5.69249e-14 3.80053e-14 3.80053e-14 2.1118e-14 2.1118e-14 -4.82198e-14 -4.82198e-14 1.73652e-14 1.73652e-14 2.86557e-14 2.86557e-14 -3.61676e-14 -3.61676e-14 2.20705e-15 2.20705e-15 2.94745e-14 2.94745e-14 -2.39014e-14 -2.39014e-14 -7.47338e-15 -7.47338e-15 2.61734e-14 2.61734e-14 -1.32552e-14 -1.32552e-14 -1.25295e-14 -1.25295e-14 2.08787e-14 2.08787e-14 -5.03635e-15 -5.03635e-15 -1.41468e-14 -1.41468e-14 1.51079e-14 1.51079e-14 6.48298e-16 6.48298e-16 -1.35058e-14 -1.35058e-14 9.8009e-15 9.8009e-15 4.09813e-15 4.09813e-15 -1.16025e-14 -1.16025e-14 5.43259e-15 5.43259e-15 5.79277e-15 5.79277e-15 -9.18038e-15 -9.18038e-15 2.14913e-15 2.14913e-15 6.24155e-15 6.24155e-15 -6.73473e-15 -6.73473e-15 -1.07147e-16 -1.07147e-16 5.89763e-15 5.89763e-15 -4.55284e-15 -4.55284e-15 -1.49909e-15 -1.49909e-15 5.12023e-15 5.12023e-15 -2.76703e-15 -2.76703e-15 -2.22594e-15 -2.22594e-15 4.16806e-15 4.16806e-15 -1.40588e-15 -1.40588e-15 -2.48088e-15 -2.48088e-15 3.21021e-15 3.21021e-15 -4.3655e-16 -4.3655e-16 -2.42906e-15 -2.42906e-15 2.34448e-15 2.34448e-15 2.03826e-16 2.03826e-16 -2.19948e-15 -2.19948e-15 1.61696e-15 1.61696e-15 5.87198e-16 5.87198e-16 -1.88547e-15 -1.88547e-15 1.03943e-15 1.03943e-15 7.82051e-16 7.82051e-16 -1.54954e-15 -1.54954e-15 6.03179e-16 6.03179e-16 8.47072e-16 8.47072e-16 -1.2299e-15 -1.2299e-15 2.89066e-16 2.89066e-16 8.28925e-16 8.28925e-16 -9.46961e-16 -9.46961e-16 7.42e-17 7.42e-17 7.62498e-16 7.62498e-16 -7.09017e-16 -7.09017e-16 -6.39552e-17 -6.39552e-17 6.72421e-16 6.72421e-16 -5.16705e-16 -5.16705e-16 -1.4541e-16 -1.4541e-16 5.75054e-16 5.75054e-16 -3.66319e-16 -3.66319e-16 -1.86747e-16 -1.86747e-16 4.80498e-16 4.80498e-16 -2.52079e-16 -2.52079e-16 -2.01006e-16 -2.01006e-16 3.94363e-16 3.94363e-16 -1.67599e-16 -1.67599e-16 -1.97999e-16 -1.97999e-16 3.19211e-16 3.19211e-16 -1.06749e-16 -1.06749e-16 -1.84814e-16 -1.84814e-16 2.55652e-16 2.55652e-16 -6.40977e-17 -6.40977e-17 -1.66371e-16 -1.66371e-16 2.03144e-16 2.03144e-16 -3.50886e-17 -3.50886e-17 -1.45935e-16 -1.45935e-16 1.60543e-16 1.60543e-16 -1.60507e-17 -1.60507e-17 -1.25558e-16 -1.25558e-16 1.2646e-16 1.2646e-16 -4.1207e-18 -4.1207e-18 -1.06438e-16 -1.06438e-16 9.94822e-17 9.94822e-17 2.87382e-18 2.87382e-18 -8.91912e-17 -8.91912e-17 7.82985e-17 7.82985e-17 6.54072e-18 6.54072e-18 -7.40531e-17 -7.40531e-17 6.17551e-17 6.17551e-17 8.0426e-18 8.0426e-18 -6.10274e-17 -6.10274e-17 4.88768e-17 4.88768e-17 8.20071e-18 8.20071e-18 -4.99835e-17 -4.99835e-17 3.8862e-17 3.8862e-17 7.58105e-18 7.58105e-18 -4.07238e-17 -4.07238e-17 3.10662e-17 3.10662e-17 6.56298e-18 6.56298e-18 -3.30258e-17 -3.30258e-17 2.49798e-17 2.49798e-17 5.3922e-18 5.3922e-18 -2.66682e-17 -2.66682e-17 2.02057e-17 2.02057e-17 4.22078e-18 4.22078e-18 -2.14442e-17 -2.14442e-17 1.64374e-17 1.64374e-17 3.13659e-18 3.13659e-18 -1.71693e-17 -1.71693e-17 1.3441e-17 1.3441e-17 2.18469e-18 2.18469e-18 -1.36828e-17 -1.36828e-17 1.10386e-17 1.10386e-17 1.38239e-18 1.38239e-18 -1.08477e-17 -1.08477e-17 9.09577e-18 9.09577e-18 7.29771e-19 7.29771e-19 -8.54873e-18 -8.54873e-18 7.51125e-18 7.51125e-18 2.16917e-19 2.16917e-19 -6.68988e-18 -6.68988e-18 6.20862e-18 6.20862e-18 -1.71358e-19 -1.71358e-19 -5.19162e-18 -5.19162e-18 5.13018e-18 5.13018e-18 -4.52385e-19 -4.52385e-19 -3.98841e-18 -3.98841e-18 4.23214e-18 4.23214e-18 -6.43701e-19 -6.43701e-19 -3.02633e-18 -3.02633e-18 3.48099e-18 3.48099e-18 -7.61906e-19 -7.61906e-19 -2.2611e-18 -2.2611e-18 2.85087e-18 2.85087e-18 -8.22038e-19 -8.22038e-19 -1.65633e-18 -1.65633e-18 2.32153e-18 2.32153e-18 -8.37295e-19 -8.37295e-19 -1.18214e-18 -1.18214e-18 1.8769e-18 1.8769e-18 -8.18978e-19 -8.18978e-19 -8.13947e-19 -8.13947e-19 1.50403e-18 1.50403e-18 -7.76555e-19 -7.76555e-19 -5.31532e-19 -5.31532e-19 1.19228e-18 1.19228e-18 -7.17812e-19 -7.17812e-19 -3.18246e-19 -3.18246e-19 9.32808e-19 9.32808e-19 -6.49027e-19 -6.49027e-19 -1.60377e-19 -1.60377e-19 7.18151e-19 7.18151e-19 -5.75169e-19 -5.75169e-19 -4.66382e-20 -4.66382e-20 5.41926e-19 5.41926e-19 -5.00081e-19 -5.00081e-19 3.22607e-20 3.22607e-20 3.98626e-19 3.98626e-19 -4.26663e-19 -4.26663e-19 8.39545e-20 8.39545e-20 2.8346e-19 2.8346e-19 -3.5703e-19 -3.5703e-19 1.14707e-19 1.14707e-19 1.92237e-19 1.92237e-19 -2.92647e-19 -2.92647e-19 1.29644e-19 1.29644e-19 1.21273e-19 1.21273e-19 -2.3446e-19 -2.3446e-19 1.32943e-19 1.32943e-19 6.73201e-20 6.73201e-20 -1.82988e-19 -1.82988e-19 1.27989e-19 1.27989e-19 2.75147e-20 2.75147e-20 -1.38416e-19 -1.38416e-19 1.17507e-19 1.17507e-19 -6.7026e-22 -6.7026e-22 -1.00661e-19 -1.00661e-19 1.03662e-19 1.03662e-19 -1.94594e-20 -1.94594e-20 -6.94389e-20 -6.94389e-20 8.81494e-20 8.81494e-20 -3.08031e-20 -3.08031e-20 -4.43063e-20 -4.43063e-20 7.22669e-20 7.22669e-20 -3.64005e-20 -3.64005e-20 -2.47097e-20 -2.47097e-20 5.69731e-20 5.69731e-20 -3.77172e-20 -3.77172e-20 -1.00205e-20 -1.00205e-20 4.29408e-20 4.29408e-20 -3.60008e-20 -3.60008e-20 4.32291e-22 4.32291e-22 3.06013e-20 3.06013e-20 -3.22946e-20 -3.22946e-20 7.33248e-21 7.33248e-21 2.01863e-20 2.01863e-20 -2.745e-20 -2.745e-20 1.13516e-20 1.13516e-20 1.17646e-20 1.17646e-20 -2.21401e-20 -2.21401e-20 1.31266e-20 1.31266e-20 5.27713e-21 5.27713e-21 -1.68745e-20 -1.68745e-20 1.32421e-20 1.32421e-20 5.69779e-22 5.69779e-22 -1.20156e-20 -1.20156e-20 1.22159e-20 1.22159e-20 -2.57686e-21 -2.57686e-21 -7.79604e-21 -7.79604e-21 1.04896e-20 1.04896e-20 -4.42022e-21 -4.42022e-21 -4.33915e-21 -4.33915e-21 8.42364e-21 8.42364e-21 -5.23197e-21 -5.23197e-21 -1.67882e-21 -1.67882e-21 6.29681e-21 6.29681e-21 -5.27815e-21 -5.27815e-21 2.19407e-22 2.19407e-22 4.30968e-21 4.30968e-21 -4.80357e-21 -4.80357e-21 1.43829e-21 1.43829e-21 2.59187e-21 2.59187e-21 -4.02076e-21 -4.02076e-21 2.09022e-21 2.09022e-21 1.21187e-21 1.21187e-21 -3.10323e-21 -3.10323e-21 2.30093e-21 2.30093e-21 1.88543e-22 1.88543e-22 -2.183e-21 -2.183e-21 2.19604e-21 2.19604e-21 -4.96577e-22 -4.96577e-22 -1.35154e-21 -1.35154e-21 1.89087e-21 1.89087e-21 -8.87236e-22 -8.87236e-22 -6.63605e-22 -6.63605e-22 1.48351e-21 1.48351e-21 -1.04145e-21 -1.04145e-21 -1.42988e-22 -1.42988e-22 1.05114e-21 1.05114e-21 -1.02215e-21 -1.02215e-21 2.10643e-22 2.10643e-22 6.48997e-22 6.48997e-22 -8.89862e-22 -8.89862e-22 4.14595e-22 4.14595e-22 3.11577e-22 3.11577e-22 -6.97564e-22 -6.97564e-22 4.96395e-22 4.96395e-22 5.54492e-23 5.54492e-23 -4.87665e-22 -4.87665e-22 4.87942e-22 4.87942e-22 -1.17031e-22 -1.17031e-22 -2.90835e-22 -2.90835e-22 4.20859e-22 4.20859e-22 -2.13642e-22 -2.13642e-22 -1.26343e-22 -1.26343e-22 3.23201e-22 3.23201e-22 -2.48349e-22 -2.48349e-22 -3.45894e-24 -3.45894e-24 2.17478e-22 2.17478e-22 -2.37855e-22 -2.37855e-22 7.649e-23 7.649e-23 1.19834e-22 1.19834e-22 -1.98862e-22 -1.98862e-22 1.1781e-22 1.1781e-22 4.01739e-23 4.01739e-23 -1.46134e-22 -1.46134e-22 1.28187e-22 1.28187e-22 -1.70691e-23 -1.70691e-23 -9.13525e-23 -9.13525e-23 1.16719e-22 1.16719e-22 -5.17585e-23 -5.17585e-23 -4.26635e-23 -4.26635e-23 9.23676e-23 9.23676e-23 -6.67365e-23 -6.67365e-23 -4.7695e-24 -4.7695e-24 6.28878e-23 6.28878e-23 -6.65429e-23 -6.65429e-23 2.05944e-23 2.05944e-23 3.42155e-23 3.42155e-23 -5.63089e-23 -5.63089e-23 3.39659e-23 3.39659e-23 1.02613e-23 1.02613e-23 -4.09051e-23 -4.09051e-23 3.73847e-23 3.73847e-23 -6.98456e-24 -6.98456e-24 -2.43716e-23 -2.43716e-23 3.36577e-23 3.36577e-23 -1.71338e-23 -1.71338e-23 -9.6211e-24 -9.6211e-24 2.57395e-23 2.57395e-23 -2.09663e-23 -2.09663e-23 1.62534e-24 1.62534e-24 1.62719e-23 1.62719e-23 -1.99658e-23 -1.99658e-23 8.72406e-24 8.72406e-24 7.29777e-24 7.29777e-24 -1.58923e-23 -1.58923e-23 1.18796e-23 1.18796e-23 1.38167e-25 1.38167e-25 -1.04375e-23 -1.04375e-23 1.18606e-23 1.18606e-23 -4.59235e-24 -4.59235e-24 -4.98564e-24 -4.98564e-24 9.71311e-24 9.71311e-24 -6.87188e-24 -6.87188e-24 -4.87453e-25 -4.87453e-25 6.51283e-24 6.51283e-24 -7.09942e-24 -7.09942e-24 2.56569e-24 2.56569e-24 3.18066e-24 3.18066e-24 -5.90511e-24 -5.90511e-24 4.08805e-24 4.08805e-24 3.73908e-25 3.73908e-25 -3.97557e-24 -3.97557e-24 4.2949e-24 4.2949e-24 -1.54961e-24 -1.54961e-24 -1.91783e-24 -1.91783e-24 3.57637e-24 3.57637e-24 -2.5071e-24 -2.5071e-24 -1.74033e-25 -1.74033