# vtk DataFile Version 3.0
#This file was generated by the deal.II library on 2020/8/11 at 22:18:02
ASCII
DATASET UNSTRUCTURED_GRID

POINTS 4096 double
0.5 0 0
0.743896 0 0
0.743896 0 0
0.987793 0 0
0.987793 0 0
1.23169 0 0
1.23169 0 0
1.47559 0 0
1.47559 0 0
1.71948 0 0
1.71948 0 0
1.96338 0 0
1.96338 0 0
2.20728 0 0
2.20728 0 0
2.45117 0 0
2.45117 0 0
2.69507 0 0
2.69507 0 0
2.93896 0 0
2.93896 0 0
3.18286 0 0
3.18286 0 0
3.42676 0 0
3.42676 0 0
3.67065 0 0
3.67065 0 0
3.91455 0 0
3.91455 0 0
4.15845 0 0
4.15845 0 0
4.40234 0 0
4.40234 0 0
4.64624 0 0
4.64624 0 0
4.89014 0 0
4.89014 0 0
5.13403 0 0
5.13403 0 0
5.37793 0 0
5.37793 0 0
5.62183 0 0
5.62183 0 0
5.86572 0 0
5.86572 0 0
6.10962 0 0
6.10962 0 0
6.35352 0 0
6.35352 0 0
6.59741 0 0
6.59741 0 0
6.84131 0 0
6.84131 0 0
7.08521 0 0
7.08521 0 0
7.3291 0 0
7.3291 0 0
7.573 0 0
7.573 0 0
7.81689 0 0
7.81689 0 0
8.06079 0 0
8.06079 0 0
8.30469 0 0
8.30469 0 0
8.54858 0 0
8.54858 0 0
8.79248 0 0
8.79248 0 0
9.03638 0 0
9.03638 0 0
9.28027 0 0
9.28027 0 0
9.52417 0 0
9.52417 0 0
9.76807 0 0
9.76807 0 0
10.012 0 0
10.012 0 0
10.2559 0 0
10.2559 0 0
10.4998 0 0
10.4998 0 0
10.7437 0 0
10.7437 0 0
10.9875 0 0
10.9875 0 0
11.2314 0 0
11.2314 0 0
11.4753 0 0
11.4753 0 0
11.7192 0 0
11.7192 0 0
11.9631 0 0
11.9631 0 0
12.207 0 0
12.207 0 0
12.4509 0 0
12.4509 0 0
12.6948 0 0
12.6948 0 0
12.9387 0 0
12.9387 0 0
13.1826 0 0
13.1826 0 0
13.4265 0 0
13.4265 0 0
13.6704 0 0
13.6704 0 0
13.9143 0 0
13.9143 0 0
14.1582 0 0
14.1582 0 0
14.4021 0 0
14.4021 0 0
14.646 0 0
14.646 0 0
14.8899 0 0
14.8899 0 0
15.1338 0 0
15.1338 0 0
15.3777 0 0
15.3777 0 0
15.6216 0 0
15.6216 0 0
15.8655 0 0
15.8655 0 0
16.1094 0 0
16.1094 0 0
16.3533 0 0
16.3533 0 0
16.5972 0 0
16.5972 0 0
16.8411 0 0
16.8411 0 0
17.085 0 0
17.085 0 0
17.3289 0 0
17.3289 0 0
17.5728 0 0
17.5728 0 0
17.8167 0 0
17.8167 0 0
18.0605 0 0
18.0605 0 0
18.3044 0 0
18.3044 0 0
18.5483 0 0
18.5483 0 0
18.7922 0 0
18.7922 0 0
19.0361 0 0
19.0361 0 0
19.28 0 0
19.28 0 0
19.5239 0 0
19.5239 0 0
19.7678 0 0
19.7678 0 0
20.0117 0 0
20.0117 0 0
20.2556 0 0
20.2556 0 0
20.4995 0 0
20.4995 0 0
20.7434 0 0
20.7434 0 0
20.9873 0 0
20.9873 0 0
21.2312 0 0
21.2312 0 0
21.4751 0 0
21.4751 0 0
21.719 0 0
21.719 0 0
21.9629 0 0
21.9629 0 0
22.2068 0 0
22.2068 0 0
22.4507 0 0
22.4507 0 0
22.6946 0 0
22.6946 0 0
22.9385 0 0
22.9385 0 0
23.1824 0 0
23.1824 0 0
23.4263 0 0
23.4263 0 0
23.6702 0 0
23.6702 0 0
23.9141 0 0
23.9141 0 0
24.158 0 0
24.158 0 0
24.4019 0 0
24.4019 0 0
24.6458 0 0
24.6458 0 0
24.8896 0 0
24.8896 0 0
25.1335 0 0
25.1335 0 0
25.3774 0 0
25.3774 0 0
25.6213 0 0
25.6213 0 0
25.8652 0 0
25.8652 0 0
26.1091 0 0
26.1091 0 0
26.353 0 0
26.353 0 0
26.5969 0 0
26.5969 0 0
26.8408 0 0
26.8408 0 0
27.0847 0 0
27.0847 0 0
27.3286 0 0
27.3286 0 0
27.5725 0 0
27.5725 0 0
27.8164 0 0
27.8164 0 0
28.0603 0 0
28.0603 0 0
28.3042 0 0
28.3042 0 0
28.5481 0 0
28.5481 0 0
28.792 0 0
28.792 0 0
29.0359 0 0
29.0359 0 0
29.2798 0 0
29.2798 0 0
29.5237 0 0
29.5237 0 0
29.7676 0 0
29.7676 0 0
30.0115 0 0
30.0115 0 0
30.2554 0 0
30.2554 0 0
30.4993 0 0
30.4993 0 0
30.7432 0 0
30.7432 0 0
30.9871 0 0
30.9871 0 0
31.231 0 0
31.231 0 0
31.4749 0 0
31.4749 0 0
31.7188 0 0
31.7188 0 0
31.9626 0 0
31.9626 0 0
32.2065 0 0
32.2065 0 0
32.4504 0 0
32.4504 0 0
32.6943 0 0
32.6943 0 0
32.9382 0 0
32.9382 0 0
33.1821 0 0
33.1821 0 0
33.426 0 0
33.426 0 0
33.6699 0 0
33.6699 0 0
33.9138 0 0
33.9138 0 0
34.1577 0 0
34.1577 0 0
34.4016 0 0
34.4016 0 0
34.6455 0 0
34.6455 0 0
34.8894 0 0
34.8894 0 0
35.1333 0 0
35.1333 0 0
35.3772 0 0
35.3772 0 0
35.6211 0 0
35.6211 0 0
35.865 0 0
35.865 0 0
36.1089 0 0
36.1089 0 0
36.3528 0 0
36.3528 0 0
36.5967 0 0
36.5967 0 0
36.8406 0 0
36.8406 0 0
37.0845 0 0
37.0845 0 0
37.3284 0 0
37.3284 0 0
37.5723 0 0
37.5723 0 0
37.8162 0 0
37.8162 0 0
38.0601 0 0
38.0601 0 0
38.304 0 0
38.304 0 0
38.5479 0 0
38.5479 0 0
38.7917 0 0
38.7917 0 0
39.0356 0 0
39.0356 0 0
39.2795 0 0
39.2795 0 0
39.5234 0 0
39.5234 0 0
39.7673 0 0
39.7673 0 0
40.0112 0 0
40.0112 0 0
40.2551 0 0
40.2551 0 0
40.499 0 0
40.499 0 0
40.7429 0 0
40.7429 0 0
40.9868 0 0
40.9868 0 0
41.2307 0 0
41.2307 0 0
41.4746 0 0
41.4746 0 0
41.7185 0 0
41.7185 0 0
41.9624 0 0
41.9624 0 0
42.2063 0 0
42.2063 0 0
42.4502 0 0
42.4502 0 0
42.6941 0 0
42.6941 0 0
42.938 0 0
42.938 0 0
43.1819 0 0
43.1819 0 0
43.4258 0 0
43.4258 0 0
43.6697 0 0
43.6697 0 0
43.9136 0 0
43.9136 0 0
44.1575 0 0
44.1575 0 0
44.4014 0 0
44.4014 0 0
44.6453 0 0
44.6453 0 0
44.8892 0 0
44.8892 0 0
45.1331 0 0
45.1331 0 0
45.377 0 0
45.377 0 0
45.6208 0 0
45.6208 0 0
45.8647 0 0
45.8647 0 0
46.1086 0 0
46.1086 0 0
46.3525 0 0
46.3525 0 0
46.5964 0 0
46.5964 0 0
46.8403 0 0
46.8403 0 0
47.0842 0 0
47.0842 0 0
47.3281 0 0
47.3281 0 0
47.572 0 0
47.572 0 0
47.8159 0 0
47.8159 0 0
48.0598 0 0
48.0598 0 0
48.3037 0 0
48.3037 0 0
48.5476 0 0
48.5476 0 0
48.7915 0 0
48.7915 0 0
49.0354 0 0
49.0354 0 0
49.2793 0 0
49.2793 0 0
49.5232 0 0
49.5232 0 0
49.7671 0 0
49.7671 0 0
50.011 0 0
50.011 0 0
50.2549 0 0
50.2549 0 0
50.4988 0 0
50.4988 0 0
50.7427 0 0
50.7427 0 0
50.9866 0 0
50.9866 0 0
51.2305 0 0
51.2305 0 0
51.4744 0 0
51.4744 0 0
51.7183 0 0
51.7183 0 0
51.9622 0 0
51.9622 0 0
52.2061 0 0
52.2061 0 0
52.45 0 0
52.45 0 0
52.6938 0 0
52.6938 0 0
52.9377 0 0
52.9377 0 0
53.1816 0 0
53.1816 0 0
53.4255 0 0
53.4255 0 0
53.6694 0 0
53.6694 0 0
53.9133 0 0
53.9133 0 0
54.1572 0 0
54.1572 0 0
54.4011 0 0
54.4011 0 0
54.645 0 0
54.645 0 0
54.8889 0 0
54.8889 0 0
55.1328 0 0
55.1328 0 0
55.3767 0 0
55.3767 0 0
55.6206 0 0
55.6206 0 0
55.8645 0 0
55.8645 0 0
56.1084 0 0
56.1084 0 0
56.3523 0 0
56.3523 0 0
56.5962 0 0
56.5962 0 0
56.8401 0 0
56.8401 0 0
57.084 0 0
57.084 0 0
57.3279 0 0
57.3279 0 0
57.5718 0 0
57.5718 0 0
57.8157 0 0
57.8157 0 0
58.0596 0 0
58.0596 0 0
58.3035 0 0
58.3035 0 0
58.5474 0 0
58.5474 0 0
58.7913 0 0
58.7913 0 0
59.0352 0 0
59.0352 0 0
59.2791 0 0
59.2791 0 0
59.5229 0 0
59.5229 0 0
59.7668 0 0
59.7668 0 0
60.0107 0 0
60.0107 0 0
60.2546 0 0
60.2546 0 0
60.4985 0 0
60.4985 0 0
60.7424 0 0
60.7424 0 0
60.9863 0 0
60.9863 0 0
61.2302 0 0
61.2302 0 0
61.4741 0 0
61.4741 0 0
61.718 0 0
61.718 0 0
61.9619 0 0
61.9619 0 0
62.2058 0 0
62.2058 0 0
62.4497 0 0
62.4497 0 0
62.6936 0 0
62.6936 0 0
62.9375 0 0
62.9375 0 0
63.1814 0 0
63.1814 0 0
63.4253 0 0
63.4253 0 0
63.6692 0 0
63.6692 0 0
63.9131 0 0
63.9131 0 0
64.157 0 0
64.157 0 0
64.4009 0 0
64.4009 0 0
64.6448 0 0
64.6448 0 0
64.8887 0 0
64.8887 0 0
65.1326 0 0
65.1326 0 0
65.3765 0 0
65.3765 0 0
65.6204 0 0
65.6204 0 0
65.8643 0 0
65.8643 0 0
66.1082 0 0
66.1082 0 0
66.3521 0 0
66.3521 0 0
66.5959 0 0
66.5959 0 0
66.8398 0 0
66.8398 0 0
67.0837 0 0
67.0837 0 0
67.3276 0 0
67.3276 0 0
67.5715 0 0
67.5715 0 0
67.8154 0 0
67.8154 0 0
68.0593 0 0
68.0593 0 0
68.3032 0 0
68.3032 0 0
68.5471 0 0
68.5471 0 0
68.791 0 0
68.791 0 0
69.0349 0 0
69.0349 0 0
69.2788 0 0
69.2788 0 0
69.5227 0 0
69.5227 0 0
69.7666 0 0
69.7666 0 0
70.0105 0 0
70.0105 0 0
70.2544 0 0
70.2544 0 0
70.4983 0 0
70.4983 0 0
70.7422 0 0
70.7422 0 0
70.9861 0 0
70.9861 0 0
71.23 0 0
71.23 0 0
71.4739 0 0
71.4739 0 0
71.7178 0 0
71.7178 0 0
71.9617 0 0
71.9617 0 0
72.2056 0 0
72.2056 0 0
72.4495 0 0
72.4495 0 0
72.6934 0 0
72.6934 0 0
72.9373 0 0
72.9373 0 0
73.1812 0 0
73.1812 0 0
73.425 0 0
73.425 0 0
73.6689 0 0
73.6689 0 0
73.9128 0 0
73.9128 0 0
74.1567 0 0
74.1567 0 0
74.4006 0 0
74.4006 0 0
74.6445 0 0
74.6445 0 0
74.8884 0 0
74.8884 0 0
75.1323 0 0
75.1323 0 0
75.3762 0 0
75.3762 0 0
75.6201 0 0
75.6201 0 0
75.864 0 0
75.864 0 0
76.1079 0 0
76.1079 0 0
76.3518 0 0
76.3518 0 0
76.5957 0 0
76.5957 0 0
76.8396 0 0
76.8396 0 0
77.0835 0 0
77.0835 0 0
77.3274 0 0
77.3274 0 0
77.5713 0 0
77.5713 0 0
77.8152 0 0
77.8152 0 0
78.0591 0 0
78.0591 0 0
78.303 0 0
78.303 0 0
78.5469 0 0
78.5469 0 0
78.7908 0 0
78.7908 0 0
79.0347 0 0
79.0347 0 0
79.2786 0 0
79.2786 0 0
79.5225 0 0
79.5225 0 0
79.7664 0 0
79.7664 0 0
80.0103 0 0
80.0103 0 0
80.2542 0 0
80.2542 0 0
80.498 0 0
80.498 0 0
80.7419 0 0
80.7419 0 0
80.9858 0 0
80.9858 0 0
81.2297 0 0
81.2297 0 0
81.4736 0 0
81.4736 0 0
81.7175 0 0
81.7175 0 0
81.9614 0 0
81.9614 0 0
82.2053 0 0
82.2053 0 0
82.4492 0 0
82.4492 0 0
82.6931 0 0
82.6931 0 0
82.937 0 0
82.937 0 0
83.1809 0 0
83.1809 0 0
83.4248 0 0
83.4248 0 0
83.6687 0 0
83.6687 0 0
83.9126 0 0
83.9126 0 0
84.1565 0 0
84.1565 0 0
84.4004 0 0
84.4004 0 0
84.6443 0 0
84.6443 0 0
84.8882 0 0
84.8882 0 0
85.1321 0 0
85.1321 0 0
85.376 0 0
85.376 0 0
85.6199 0 0
85.6199 0 0
85.8638 0 0
85.8638 0 0
86.1077 0 0
86.1077 0 0
86.3516 0 0
86.3516 0 0
86.5955 0 0
86.5955 0 0
86.8394 0 0
86.8394 0 0
87.0833 0 0
87.0833 0 0
87.3271 0 0
87.3271 0 0
87.571 0 0
87.571 0 0
87.8149 0 0
87.8149 0 0
88.0588 0 0
88.0588 0 0
88.3027 0 0
88.3027 0 0
88.5466 0 0
88.5466 0 0
88.7905 0 0
88.7905 0 0
89.0344 0 0
89.0344 0 0
89.2783 0 0
89.2783 0 0
89.5222 0 0
89.5222 0 0
89.7661 0 0
89.7661 0 0
90.01 0 0
90.01 0 0
90.2539 0 0
90.2539 0 0
90.4978 0 0
90.4978 0 0
90.7417 0 0
90.7417 0 0
90.9856 0 0
90.9856 0 0
91.2295 0 0
91.2295 0 0
91.4734 0 0
91.4734 0 0
91.7173 0 0
91.7173 0 0
91.9612 0 0
91.9612 0 0
92.2051 0 0
92.2051 0 0
92.449 0 0
92.449 0 0
92.6929 0 0
92.6929 0 0
92.9368 0 0
92.9368 0 0
93.1807 0 0
93.1807 0 0
93.4246 0 0
93.4246 0 0
93.6685 0 0
93.6685 0 0
93.9124 0 0
93.9124 0 0
94.1562 0 0
94.1562 0 0
94.4001 0 0
94.4001 0 0
94.644 0 0
94.644 0 0
94.8879 0 0
94.8879 0 0
95.1318 0 0
95.1318 0 0
95.3757 0 0
95.3757 0 0
95.6196 0 0
95.6196 0 0
95.8635 0 0
95.8635 0 0
96.1074 0 0
96.1074 0 0
96.3513 0 0
96.3513 0 0
96.5952 0 0
96.5952 0 0
96.8391 0 0
96.8391 0 0
97.083 0 0
97.083 0 0
97.3269 0 0
97.3269 0 0
97.5708 0 0
97.5708 0 0
97.8147 0 0
97.8147 0 0
98.0586 0 0
98.0586 0 0
98.3025 0 0
98.3025 0 0
98.5464 0 0
98.5464 0 0
98.7903 0 0
98.7903 0 0
99.0342 0 0
99.0342 0 0
99.2781 0 0
99.2781 0 0
99.522 0 0
99.522 0 0
99.7659 0 0
99.7659 0 0
100.01 0 0
100.01 0 0
100.254 0 0
100.254 0 0
100.498 0 0
100.498 0 0
100.741 0 0
100.741 0 0
100.985 0 0
100.985 0 0
101.229 0 0
101.229 0 0
101.473 0 0
[...]
POINT_DATA 4096
SCALARS solution_0 double 1
LOOKUP_TABLE default
3.182e-06 -2.72737e+09 -2.72737e+09 -1.07472e+09 -1.07472e+09 -7.01442e+08 -7.01442e+08 -5.18496e+08 -5.18496e+08 -4.05755e+08 -4.05755e+08 -3.28112e+08 -3.28112e+08 -2.71043e+08 -2.71043e+08 -2.27278e+08 -2.27278e+08 -1.92707e+08 -1.92707e+08 -1.64799e+08 -1.64799e+08 -1.41894e+08 -1.41894e+08 -1.2285e+08 -1.2285e+08 -1.06852e+08 -1.06852e+08 -9.32977e+07 -9.32977e+07 -8.17327e+07 -8.17327e+07 -7.18062e+07 -7.18062e+07 -6.3243e+07 -6.3243e+07 -5.58236e+07 -5.58236e+07 -4.93709e+07 -4.93709e+07 -4.37401e+07 -4.37401e+07 -3.88123e+07 -3.88123e+07 -3.44885e+07 -3.44885e+07 -3.06858e+07 -3.06858e+07 -2.73343e+07 -2.73343e+07 -2.43751e+07 -2.43751e+07 -2.17577e+07 -2.17577e+07 -1.94391e+07 -1.94391e+07 -1.73822e+07 -1.73822e+07 -1.5555e+07 -1.5555e+07 -1.39301e+07 -1.39301e+07 -1.24834e+07 -1.24834e+07 -1.1194e+07 -1.1194e+07 -1.00438e+07 -1.00438e+07 -9.01679e+06 -9.01679e+06 -8.09905e+06 -8.09905e+06 -7.27832e+06 -7.27832e+06 -6.54382e+06 -6.54382e+06 -5.88604e+06 -5.88604e+06 -5.2966e+06 -5.2966e+06 -4.76807e+06 -4.76807e+06 -4.29391e+06 -4.29391e+06 -3.86828e+06 -3.86828e+06 -3.48603e+06 -3.48603e+06 -3.14258e+06 -3.14258e+06 -2.83384e+06 -2.83384e+06 -2.5562e+06 -2.5562e+06 -2.3064e+06 -2.3064e+06 -2.08159e+06 -2.08159e+06 -1.87918e+06 -1.87918e+06 -1.69687e+06 -1.69687e+06 -1.53261e+06 -1.53261e+06 -1.38458e+06 -1.38458e+06 -1.25112e+06 -1.25112e+06 -1.13076e+06 -1.13076e+06 -1.02219e+06 -1.02219e+06 -924231 -924231 -835816 -835816 -755998 -755998 -683923 -683923 -618826 -618826 -560018 -560018 -506879 -506879 -458854 -458854 -415441 -415441 -376190 -376190 -340695 -340695 -308592 -308592 -279551 -279551 -253275 -253275 -229497 -229497 -207977 -207977 -188498 -188498 -170862 -170862 -154893 -154893 -140432 -140432 -127335 -127335 -115471 -115471 -104723 -104723 -94984 -94984 -86159.3 -86159.3 -78161.7 -78161.7 -70912.9 -70912.9 -64342 -64342 -58385 -58385 -52983.9 -52983.9 -48086.4 -48086.4 -43645.1 -43645.1 -39617.1 -39617.1 -35963.6 -35963.6 -32649.4 -32649.4 -29642.9 -29642.9 -26915.1 -26915.1 -24440 -24440 -22194 -22194 -20155.8 -20155.8 -18306 -18306 -16627 -16627 -15102.9 -15102.9 -13719.4 -13719.4 -12463.4 -12463.4 -11323 -11323 -10287.6 -10287.6 -9347.38 -9347.38 -8493.56 -8493.56 -7718.16 -7718.16 -7013.92 -7013.92 -6374.27 -6374.27 -5793.25 -5793.25 -5265.46 -5265.46 -4785.99 -4785.99 -4350.39 -4350.39 -3954.63 -3954.63 -3595.04 -3595.04 -3268.3 -3268.3 -2971.39 -2971.39 -2701.57 -2701.57 -2456.36 -2456.36 -2233.5 -2233.5 -2030.95 -2030.95 -1846.84 -1846.84 -1679.5 -1679.5 -1527.37 -1527.37 -1389.08 -1389.08 -1263.36 -1263.36 -1149.07 -1149.07 -1045.15 -1045.15 -950.665 -950.665 -864.754 -864.754 -786.635 -786.635 -715.598 -715.598 -650.999 -650.999 -592.252 -592.252 -538.824 -538.824 -490.232 -490.232 -446.037 -446.037 -405.84 -405.84 -369.276 -369.276 -336.018 -336.018 -305.764 -305.764 -278.242 -278.242 -253.206 -253.206 -230.429 -230.429 -209.707 -209.707 -190.854 -190.854 -173.701 -173.701 -158.093 -158.093 -143.893 -143.893 -130.971 -130.971 -119.213 -119.213 -108.513 -108.513 -98.7764 -98.7764 -89.9156 -89.9156 -81.8518 -81.8518 -74.513 -74.513 -67.8339 -67.8339 -61.755 -61.755 -56.2222 -56.2222 -51.1864 -51.1864 -46.6026 -46.6026 -42.4304 -42.4304 -38.6325 -38.6325 -35.1754 -35.1754 -32.0284 -32.0284 -29.1636 -29.1636 -26.5556 -26.5556 -24.1813 -24.1813 -22.0198 -22.0198 -20.0519 -20.0519 -18.2603 -18.2603 -16.6291 -16.6291 -15.1439 -15.1439 -13.7916 -13.7916 -12.5604 -12.5604 -11.4393 -11.4393 -10.4184 -10.4184 -9.48884 -9.48884 -8.64237 -8.64237 -7.87156 -7.87156 -7.16961 -7.16961 -6.53037 -6.53037 -5.94821 -5.94821 -5.418 -5.418 -4.9351 -4.9351 -4.49523 -4.49523 -4.09452 -4.09452 -3.72942 -3.72942 -3.39668 -3.39668 -3.09332 -3.09332 -2.81659 -2.81659 -2.56397 -2.56397 -2.3331 -2.3331 -2.12179 -2.12179 -1.92801 -1.92801 -1.74986 -1.74986 -1.58556 -1.58556 -1.43348 -1.43348 -1.29214 -1.29214 -1.16022 -1.16022 -1.03659 -1.03659 -0.920371 -0.920371 -0.810911 -0.810911 -0.70783 -0.70783 -0.611006 -0.611006 -0.520549 -0.520549 -0.43674 -0.43674 -0.359949 -0.359949 -0.290533 -0.290533 -0.228725 -0.228725 -0.174546 -0.174546 -0.127746 -0.127746 -0.087805 -0.087805 -0.0539866 -0.0539866 -0.0254527 -0.0254527 -0.00140115 -0.00140115 0.0188045 0.0188045 0.0355602 0.0355602 0.049039 0.049039 0.0593193 0.0593193 0.0666125 0.0666125 0.0715435 0.0715435 0.0754185 0.0754185 0.0803998 0.0803998 0.0895325 0.0895325 0.106599 0.106599 0.135828 0.135828 0.181531 0.181531 0.247748 0.247748 0.337978 0.337978 0.455032 0.455032 0.60098 0.60098 0.777108 0.777108 0.98381 0.98381 1.22033 1.22033 1.48433 1.48433 1.77139 1.77139 2.07441 2.07441 2.38329 2.38329 2.68476 2.68476 2.96267 2.96267 3.19878 3.19878 3.37405 3.37405 3.47041 3.47041 3.47296 3.47296 3.37234 3.37234 3.16687 3.16687 2.86395 2.86395 2.48041 2.48041 2.0414 2.0414 1.5778 1.5778 1.12259 1.12259 0.706801 0.706801 0.355643 0.355643 0.0856694 0.0856694 -0.0967348 -0.0967348 -0.195327 -0.195327 -0.222582 -0.222582 -0.197148 -0.197148 -0.140574 -0.140574 -0.0738087 -0.0738087 -0.0140156 -0.0140156 0.0277165 0.0277165 0.0472951 0.0472951 0.0469854 0.0469854 0.0334165 0.0334165 0.0148355 0.0148355 -0.00155794 -0.00155794 -0.0114301 -0.0114301 -0.0138549 -0.0138549 -0.0106372 -0.0106372 -0.00489584 -0.00489584 0.000425996 0.000425996 0.00356054 0.00356054 0.0041743 0.0041743 0.00299465 0.00299465 0.00114677 0.00114677 -0.000429644 -0.000429644 -0.0012648 -0.0012648 -0.0013377 -0.0013377 -0.000890877 -0.000890877 -0.000241557 -0.000241557 0.000330421 0.000330421 0.000631489 0.000631489 0.000586206 0.000586206 0.000262759 0.000262759 -0.000143764 -0.000143764 -0.00040163 -0.00040163 -0.000376069 -0.000376069 -0.000117209 -0.000117209 0.000174667 0.000174667 0.000294525 0.000294525 0.000181938 0.000181938 -4.42707e-05 -4.42707e-05 -0.00019363 -0.00019363 -0.000161854 -0.000161854 -5.39692e-06 -5.39692e-06 0.000124882 0.000124882 0.000123335 0.000123335 1.44943e-05 1.44943e-05 -8.6501e-05 -8.6501e-05 -8.97539e-05 -8.97539e-05 -8.95093e-06 -8.95093e-06 6.60619e-05 6.60619e-05 6.46762e-05 6.46762e-05 3.24128e-07 3.24128e-07 -5.41466e-05 -5.41466e-05 -4.60632e-05 -4.60632e-05 7.42309e-06 7.42309e-06 4.56651e-05 4.56651e-05 3.15941e-05 3.15941e-05 -1.3288e-05 -1.3288e-05 -3.83011e-05 -3.83011e-05 -1.98313e-05 -1.98313e-05 1.71514e-05 1.71514e-05 3.11445e-05 3.11445e-05 1.01036e-05 1.01036e-05 -1.90798e-05 -1.90798e-05 -2.39426e-05 -2.39426e-05 -2.20106e-06 -2.20106e-06 1.91707e-05 1.91707e-05 1.67685e-05 1.67685e-05 -3.85288e-06 -3.85288e-06 -1.75675e-05 -1.75675e-05 -9.88774e-06 -9.88774e-06 7.94683e-06 7.94683e-06 1.45137e-05 1.45137e-05 3.69722e-06 3.69722e-06 -9.99238e-06 -9.99238e-06 -1.04043e-05 -1.04043e-05 1.33578e-06 1.33578e-06 1.00289e-05 1.00289e-05 5.8074e-06 5.8074e-06 -4.76935e-06 -4.76935e-06 -8.31933e-06 -8.31933e-06 -1.42691e-06 -1.42691e-06 6.32218e-06 6.32218e-06 5.40243e-06 5.40243e-06 -2.01538e-06 -2.01538e-06 -6.01481e-06 -6.01481e-06 -2.05547e-06 -2.05547e-06 3.96566e-06 3.96566e-06 4.25194e-06 4.25194e-06 -8.60295e-07 -8.60295e-07 -4.23198e-06 -4.23198e-06 -1.77739e-06 -1.77739e-06 2.64313e-06 2.64313e-06 3.09101e-06 3.09101e-06 -5.24257e-07 -5.24257e-07 -2.99201e-06 -2.99201e-06 -1.22451e-06 -1.22451e-06 1.92588e-06 1.92588e-06 2.12173e-06 2.12173e-06 -5.2688e-07 -5.2688e-07 -2.12732e-06 -2.12732e-06 -6.65704e-07 -6.65704e-07 1.50167e-06 1.50167e-06 1.35232e-06 1.35232e-06 -6.1601e-07 -6.1601e-07 -1.48397e-06 -1.48397e-06 -2.0205e-07 -2.0205e-07 1.18883e-06 1.18883e-06 7.51041e-07 7.51041e-07 -6.72165e-07 -6.72165e-07 -9.68895e-07 -9.68895e-07 1.31112e-07 1.31112e-07 9.0061e-07 9.0061e-07 2.9577e-07 2.9577e-07 -6.482e-07 -6.482e-07 -5.4371e-07 -5.4371e-07 3.24303e-07 3.24303e-07 6.11558e-07 6.11558e-07 -2.07373e-08 -2.07373e-08 -5.39254e-07 -5.39254e-07 -2.05689e-07 -2.05689e-07 3.83826e-07 3.83826e-07 3.33461e-07 3.33461e-07 -2.00545e-07 -2.00545e-07 -3.68316e-07 -3.68316e-07 3.17417e-08 3.17417e-08 3.3218e-07 3.3218e-07 9.72073e-08 9.72073e-08 -2.52881e-07 -2.52881e-07 -1.76742e-07 -1.76742e-07 1.56604e-07 1.56604e-07 2.09179e-07 2.09179e-07 -6.36143e-08 -6.36143e-08 -2.03957e-07 -2.03957e-07 -1.32165e-08 -1.32165e-08 1.73373e-07 1.73373e-07 6.79223e-08 6.79223e-08 -1.29457e-07 -1.29457e-07 -9.98989e-08 -9.98989e-08 8.21123e-08 8.21123e-08 1.1203e-07 1.1203e-07 -3.83505e-08 -3.83505e-08 -1.0896e-07 -1.0896e-07 2.30092e-09 2.30092e-09 9.57582e-08 9.57582e-08 2.43228e-08 2.43228e-08 -7.70429e-08 -7.70429e-08 -4.15679e-08 -4.15679e-08 5.65148e-08 5.65148e-08 5.05834e-08 5.05834e-08 -3.68107e-08 -3.68107e-08 -5.30626e-08 -5.30626e-08 1.95643e-08 1.95643e-08 5.08297e-08 5.08297e-08 -5.57954e-09 -5.57954e-09 -4.55726e-08 -4.55726e-08 -4.95462e-09 -4.95462e-09 3.8698e-08 3.8698e-08 1.22564e-08 1.22564e-08 -3.128e-08 -3.128e-08 -1.67751e-08 -1.67751e-08 2.40686e-08 2.40686e-08 1.90574e-08 1.90574e-08 -1.75334e-08 -1.75334e-08 -1.96548e-08 -1.96548e-08 1.19215e-08 1.19215e-08 1.9068e-08 1.9068e-08 -7.31687e-09 -7.31687e-09 -1.77183e-08 -1.77183e-08 3.69398e-09 3.69398e-09 1.59384e-08 1.59384e-08 -9.60891e-10 -9.60891e-10 -1.39766e-08 -1.39766e-08 -1.00767e-09 -1.00767e-09 1.20068e-08 1.20068e-08 2.34728e-09 2.34728e-09 -1.01424e-08 -1.01424e-08 -3.18889e-09 -3.18889e-09 8.44951e-09 8.44951e-09 3.65026e-09 3.65026e-09 -6.95979e-09 -6.95979e-09 -3.83191e-09 -3.83191e-09 5.68095e-09 5.68095e-09 3.81614e-09 3.81614e-09 -4.60513e-09 -4.60513e-09 -3.66798e-09 -3.66798e-09 3.7153e-09 3.7153e-09 3.43716e-09 3.43716e-09 -2.98984e-09 -2.98984e-09 -3.16047e-09 -3.16047e-09 2.40567e-09 2.40567e-09 2.8642e-09 2.8642e-09 -1.94029e-09 -1.94029e-09 -2.56641e-09 -2.56641e-09 1.57293e-09 1.57293e-09 2.27889e-09 2.27889e-09 -1.28521e-09 -1.28521e-09 -2.00879e-09 -2.00879e-09 1.06126e-09 1.06126e-09 1.75991e-09 1.75991e-09 -8.87735e-10 -8.87735e-10 -1.53379e-09 -1.53379e-09 7.53611e-10 7.53611e-10 1.33043e-09 1.33043e-09 -6.49908e-10 -6.49908e-10 -1.14886e-09 -1.14886e-09 5.69416e-10 5.69416e-10 9.87593e-10 9.87593e-10 -5.0641e-10 -5.0641e-10 -8.44853e-10 -8.44853e-10 4.56395e-10 4.56395e-10 7.18813e-10 7.18813e-10 -4.15878e-10 -4.15878e-10 -6.07695e-10 -6.07695e-10 3.8217e-10 3.8217e-10 5.09841e-10 5.09841e-10 -3.53232e-10 -3.53232e-10 -4.23757e-10 -4.23757e-10 3.27534e-10 3.27534e-10 3.48123e-10 3.48123e-10 -3.03955e-10 -3.03955e-10 -2.81791e-10 -2.81791e-10 2.81691e-10 2.81691e-10 2.23774e-10 2.23774e-10 -2.60192e-10 -2.60192e-10 -1.73231e-10 -1.73231e-10 2.39105e-10 2.39105e-10 1.29441e-10 1.29441e-10 -2.18234e-10 -2.18234e-10 -9.179e-11 -9.179e-11 1.97502e-10 1.97502e-10 5.97433e-11 5.97433e-11 -1.76928e-10 -1.76928e-10 -3.28312e-11 -3.28312e-11 1.56601e-10 1.56601e-10 1.06301e-11 1.06301e-11 -1.3666e-10 -1.3666e-10 7.25257e-12 7.25257e-12 1.17279e-10 1.17279e-10 -2.119e-11 -2.119e-11 -9.86529e-11 -9.86529e-11 3.15464e-11 3.15464e-11 8.0983e-11 8.0983e-11 -3.86834e-11 -3.86834e-11 -6.44649e-11 -6.44649e-11 4.29653e-11 4.29653e-11 4.92787e-11 4.92787e-11 -4.47604e-11 -4.47604e-11 -3.55797e-11 -3.55797e-11 4.44406e-11 4.44406e-11 2.34906e-11 2.34906e-11 -4.23794e-11 -4.23794e-11 -1.30951e-11 -1.30951e-11 3.89471e-11 3.89471e-11 4.43433e-12 4.43433e-12 -3.45053e-11 -3.45053e-11 2.49641e-12 2.49641e-12 2.94002e-11 2.94002e-11 -7.74741e-12 -7.74741e-12 -2.39553e-11 -2.39553e-11 1.1413e-11 1.1413e-11 1.84643e-11 1.84643e-11 -1.3628e-11 -1.3628e-11 -1.31841e-11 -1.31841e-11 1.45614e-11 1.45614e-11 8.32885e-12 8.32885e-12 -1.44097e-11 -1.44097e-11 -4.06578e-12 -4.06578e-12 1.33881e-11 1.33881e-11 5.11996e-13 5.11996e-13 -1.17204e-11 -1.17204e-11 2.26607e-12 2.26607e-12 9.62937e-12 9.62937e-12 -4.25125e-12 -4.25125e-12 -7.32669e-12 -7.32669e-12 5.472e-12 5.472e-12 5.00367e-12 5.00367e-12 -5.9965e-12 -5.9965e-12 -2.82326e-12 -2.82326e-12 5.92496e-12 5.92496e-12 9.13894e-13 9.13894e-13 -5.38046e-12 -5.38046e-12 6.3444e-13 6.3444e-13 4.49882e-12 4.49882e-12 -1.77165e-12 -1.77165e-12 -3.41829e-12 -3.41829e-12 2.48628e-12 2.48628e-12 2.2696e-12 2.2696e-12 -2.80174e-12 -2.80174e-12 -1.16732e-12 -1.16732e-12 2.77023e-12 2.77023e-12 2.02943e-13 2.02943e-13 -2.46498e-12 -2.46498e-12 5.59638e-13 5.59638e-13 1.97134e-12 1.97134e-12 -1.086e-12 -1.086e-12 -1.3777e-12 -1.3777e-12 1.37035e-12 1.37035e-12 7.66868e-13 7.66868e-13 -1.43211e-12 -1.43211e-12 -2.08887e-13 -2.08887e-13 1.31048e-12 1.31048e-12 -2.44264e-13 -2.44264e-13 -1.05754e-12 -1.05754e-12 5.61504e-13 5.61504e-13 7.30773e-13 7.30773e-13 -7.32965e-13 -7.32965e-13 -3.85812e-13 -3.85812e-13 7.67919e-13 7.67919e-13 7.02646e-14 7.02646e-14 -6.9073e-13 -6.9073e-13 1.80782e-13 1.80782e-13 5.35498e-13 5.35498e-13 -3.47171e-13 -3.47171e-13 -3.40175e-13 -3.40175e-13 4.23876e-13 4.23876e-13 1.40945e-13 1.40945e-13 -4.19207e-13 -4.19207e-13 3.24001e-14 3.24001e-14 3.51446e-13 3.51446e-13 -1.59567e-13 -1.59567e-13 -2.44561e-13 -2.44561e-13 2.31082e-13 2.31082e-13 1.23725e-13 1.23725e-13 -2.47841e-13 -2.47841e-13 -1.12993e-14 -1.12993e-14 2.19161e-13 2.19161e-13 -7.61433e-14 -7.61433e-14 -1.59825e-13 -1.59825e-13 1.29433e-13 1.29433e-13 8.67169e-14 8.67169e-14 -1.46978e-13 -1.46978e-13 -1.56377e-14 -1.56377e-14 1.33648e-13 1.33648e-13 -4.11877e-14 -4.11877e-14 -9.87551e-14 -9.87551e-14 7.65818e-14 7.65818e-14 5.35785e-14 5.35785e-14 -8.87561e-14 -8.87561e-14 -8.95997e-15 -8.95997e-15 8.06246e-14 8.06246e-14 -2.66207e-14 -2.66207e-14 -5.83661e-14 -5.83661e-14 4.82005e-14 4.82005e-14 2.96171e-14 2.96171e-14 -5.46183e-14 -5.46183e-14 -1.69789e-15 -1.69789e-15 4.80089e-14 4.80089e-14 -1.97891e-14 -1.97891e-14 -3.27309e-14 -3.27309e-14 3.17664e-14 3.17664e-14 1.40325e-14 1.40325e-14 -3.38267e-14 -3.38267e-14 3.2274e-15 3.2274e-15 2.77918e-14 2.77918e-14 -1.55451e-14 -1.55451e-14 -1.68753e-14 -1.68753e-14 2.12688e-14 2.12688e-14 4.6951e-15 4.6951e-15 -2.05974e-14 -2.05974e-14 5.62254e-15 5.62254e-15 1.51635e-14 1.51635e-14 -1.2062e-14 -1.2062e-14 -7.36646e-15 -7.36646e-15 1.39652e-14 1.39652e-14 -3.48993e-16 -3.48993e-16 -1.19139e-14 -1.19139e-14 6.08978e-15 6.08978e-15 7.33628e-15 7.33628e-15 -8.86561e-15 -8.86561e-15 -1.98204e-15 -1.98204e-15 8.65163e-15 8.65163e-15 -2.58339e-15 -2.58339e-15 -6.1972e-15 -6.1972e-15 5.34165e-15 5.34165e-15 2.67375e-15 2.67375e-15 -5.97431e-15 -5.97431e-15 7.19697e-16 7.19697e-16 4.8032e-15 4.8032e-15 -3.08257e-15 -3.08257e-15 -2.57162e-15 -2.57162e-15 3.99585e-15 3.99585e-15 1.53491e-16 1.53491e-16 -3.53824e-15 -3.53824e-15 1.71719e-15 1.71719e-15 2.1608e-15 2.1608e-15 -2.62528e-15 -2.62528e-15 -4.80719e-16 -4.80719e-16 2.52767e-15 2.52767e-15 -9.32459e-16 -9.32459e-16 -1.68829e-15 -1.68829e-15 1.71489e-15 1.71489e-15 5.35496e-16 5.35496e-16 -1.77445e-15 -1.77445e-15 5.01837e-16 5.01837e-16 1.26171e-15 1.26171e-15 -1.12595e-15 -1.12595e-15 -4.72432e-16 -4.72432e-16 1.23536e-15 1.23536e-15 -2.75964e-16 -2.75964e-16 -9.15543e-16 -9.15543e-16 7.50083e-16 7.50083e-16 3.71871e-16 3.71871e-16 -8.5824e-16 -8.5824e-16 1.62709e-16 1.62709e-16 6.50423e-16 6.50423e-16 -5.10564e-16 -5.10564e-16 -2.7145e-16 -2.7145e-16 5.97125e-16 5.97125e-16 -1.08211e-16 -1.08211e-16 -4.54173e-16 -4.54173e-16 3.56315e-16 3.56315e-16 1.86047e-16 1.86047e-16 -4.16531e-16 -4.16531e-16 8.24644e-17 8.24644e-17 3.11887e-16 3.11887e-16 -2.54749e-16 -2.54749e-16 -1.19378e-16 -1.19378e-16 2.90942e-16 2.90942e-16 -6.95689e-17 -6.95689e-17 -2.10089e-16 -2.10089e-16 1.85704e-16 1.85704e-16 7.02724e-17 7.02724e-17 -2.02782e-16 -2.02782e-16 6.15952e-17 6.15952e-17 1.37983e-16 1.37983e-16 -1.36983e-16 -1.36983e-16 -3.58383e-17 -3.58383e-17 1.40248e-16 1.40248e-16 -5.49337e-17 -5.49337e-17 -8.74215e-17 -8.74215e-17 1.01317e-16 1.01317e-16 1.29124e-17 1.29124e-17 -9.55153e-17 -9.55153e-17 4.82091e-17 4.82091e-17 5.2443e-17 5.2443e-17 -7.44111e-17 -7.44111e-17 1.35638e-18 1.35638e-18 6.33976e-17 6.33976e-17 -4.11318e-17 -4.11318e-17 -2.87349e-17 -2.87349e-17 5.37201e-17 5.37201e-17 -9.33693e-18 -9.33693e-18 -4.04185e-17 -4.04185e-17 3.38854e-17 3.38854e-17 1.31724e-17 1.31724e-17 -3.77045e-17 -3.77045e-17 1.29188e-17 1.29188e-17 2.41913e-17 2.41913e-17 -2.68102e-17 -2.68102e-17 -3.46708e-18 -3.46708e-18 2.53862e-17 2.53862e-17 -1.35741e-17 -1.35741e-17 -1.30187e-17 -1.30187e-17 2.0247e-17 2.0247e-17 -2.08344e-18 -2.08344e-18 -1.60894e-17 -1.60894e-17 1.24287e-17 1.24287e-17 5.64224e-18 5.64224e-18 -1.44648e-17 -1.44648e-17 4.76385e-18 4.76385e-18 9.29366e-18 9.29366e-18 -1.03245e-17 -1.03245e-17 -1.0898e-18 -1.0898e-18 9.63403e-18 9.63403e-18 -5.55163e-18 -5.55163e-18 -4.55608e-18 -4.55608e-18 7.87023e-18 7.87023e-18 -1.41295e-18 -1.41295e-18 -5.8232e-18 -5.8232e-18 5.18781e-18 5.18781e-18 1.47442e-18 1.47442e-18 -5.48133e-18 -5.48133e-18 2.49189e-18 2.49189e-18 3.00975e-18 3.00975e-18 -4.22312e-18 -4.22312e-18 3.24877e-19 3.24877e-19 3.41448e-18 3.41448e-18 -2.65045e-18 -2.65045e-18 -1.09834e-18 -1.09834e-18 3.04992e-18 3.04992e-18 -1.18501e-18 -1.18501e-18 -1.79818e-18 -1.79818e-18 2.28329e-18 2.28329e-18 -5.67249e-20 -5.67249e-20 -1.92744e-18 -1.92744e-18 1.41057e-18 1.41057e-18 6.62067e-19 6.62067e-19 -1.68511e-18 -1.68511e-18 6.27674e-19 6.27674e-19 1.00466e-18 1.00466e-18 -1.25811e-18 -1.25811e-18 3.45747e-20 3.45747e-20 1.05915e-18 1.05915e-18 -7.90735e-19 -7.90735e-19 -3.43226e-19 -3.43226e-19 9.28846e-19 9.28846e-19 -3.75739e-19 -3.75739e-19 -5.28053e-19 -5.28053e-19 7.06962e-19 7.06962e-19 -5.92207e-20 -5.92207e-20 -5.65891e-19 -5.65891e-19 4.64205e-19 4.64205e-19 1.47898e-19 1.47898e-19 -5.0832e-19 -5.0832e-19 2.45935e-19 2.45935e-19 2.56925e-19 2.56925e-19 -4.01307e-19 -4.01307e-19 7.51287e-20 7.51287e-20 2.90112e-19 2.90112e-19 -2.79865e-19 -2.79865e-19 -4.19913e-20 -4.19913e-20 2.72361e-19 2.72361e-19 -1.66952e-19 -1.66952e-19 -1.09896e-19 -1.09896e-19 2.26101e-19 2.26101e-19 -7.4893e-20 -7.4893e-20 -1.38524e-19 -1.38524e-19 1.688e-19 1.688e-19 -7.94873e-21 -7.94873e-21 -1.39432e-19 -1.39432e-19 1.12382e-19 1.12382e-19 3.49253e-20 3.49253e-20 -1.23366e-19 -1.23366e-19 6.37842e-20 6.37842e-20 5.76809e-20 5.76809e-20 -9.90167e-20 -9.90167e-20 2.60447e-20 2.60447e-20 6.53735e-20 6.53735e-20 -7.26374e-20 -7.26374e-20 -4.79872e-22 -4.79872e-22 6.29788e-20 6.29788e-20 -4.81924e-20 -4.81924e-20 -1.70312e-20 -1.70312e-20 5.47362e-20 5.47362e-20 -2.77809e-20 -2.77809e-20 -2.56041e-20 -2.56041e-20 4.38864e-20 4.38864e-20 -1.21435e-20 -1.21435e-20 -2.83617e-20 -2.83617e-20 3.26653e-20 3.26653e-20 -1.13964e-21 -1.13964e-21 -2.72828e-20 -2.72828e-20 2.24397e-20 2.24397e-20 5.86156e-21 5.86156e-21 -2.39878e-20 -2.39878e-20 1.39026e-20 1.39026e-20 9.69513e-21 9.69513e-21 -1.96891e-20 -1.96891e-20 7.27219e-21 7.27219e-21 1.12116e-20 1.12116e-20 -1.52158e-20 -1.52158e-20 2.4667e-21 2.4667e-21 1.11687e-20 1.11687e-20 -1.10778e-20 -1.10778e-20 -7.59529e-22 -7.59529e-22 1.01819e-20 1.01819e-20 -7.54115e-21 -7.54115e-21 -2.71833e-21 -2.71833e-21 8.71433e-21 8.71433e-21 -4.70101e-21 -4.70101e-21 -3.72473e-21 -3.72473e-21 7.08917e-21 7.08917e-21 -2.54323e-21 -2.54323e-21 -4.0609e-21 -4.0609e-21 5.51359e-21 5.51359e-21 -9.92017e-22 -9.92017e-22 -3.95967e-21 -3.95967e-21 4.10549e-21 4.10549e-21 5.60295e-23 5.60295e-23 -3.60089e-21 -3.60089e-21 2.91884e-21 2.91884e-21 7.09564e-22 7.09564e-22 -3.11519e-21 -3.11519e-21 1.96515e-21 1.96515e-21 1.06927e-21 1.06927e-21 -2.59164e-21 -2.59164e-21 1.23016e-21 1.23016e-21 1.22126e-21 1.22126e-21 -2.08646e-21 -2.08646e-21 6.86107e-22 6.86107e-22 1.23481e-21 1.23481e-21 -1.63141e-21 -1.63141e-21 3.00029e-22 3.00029e-22 1.16295e-21 1.16295e-21 -1.24112e-21 -1.24112e-21 3.90443e-23 3.90443e-23 1.04428e-21 1.04428e-21 -9.18889e-22 -9.18889e-22 -1.26684e-22 -1.26684e-22 9.05605e-22 9.05605e-22 -6.61191e-22 -6.61191e-22 -2.22557e-22 -2.22557e-22 7.64445e-22 7.64445e-22 -4.60806e-22 -4.60806e-22 -2.69175e-22 -2.69175e-22 6.31429e-22 6.31429e-22 -3.0901e-22 -3.0901e-22 -2.82585e-22 -2.82585e-22 5.12265e-22 5.12265e-22 -1.96932e-22 -1.96932e-22 -2.74838e-22 -2.74838e-22 4.09325e-22 4.09325e-22 -1.16351e-22 -1.16351e-22 -2.54673e-22 -2.54673e-22 3.22844e-22 3.22844e-22 -6.00874e-23 -6.00874e-23 -2.28191e-22 -2.28191e-22 2.5179e-22 2.5179e-22 -2.21403e-23 -2.21403e-23 -1.9947