# vtk DataFile Version 3.0
#This file was generated by the deal.II library on 2020/8/11 at 22:16:11
ASCII
DATASET UNSTRUCTURED_GRID

POINTS 4096 double
0.5 0 0
0.743896 0 0
0.743896 0 0
0.987793 0 0
0.987793 0 0
1.23169 0 0
1.23169 0 0
1.47559 0 0
1.47559 0 0
1.71948 0 0
1.71948 0 0
1.96338 0 0
1.96338 0 0
2.20728 0 0
2.20728 0 0
2.45117 0 0
2.45117 0 0
2.69507 0 0
2.69507 0 0
2.93896 0 0
2.93896 0 0
3.18286 0 0
3.18286 0 0
3.42676 0 0
3.42676 0 0
3.67065 0 0
3.67065 0 0
3.91455 0 0
3.91455 0 0
4.15845 0 0
4.15845 0 0
4.40234 0 0
4.40234 0 0
4.64624 0 0
4.64624 0 0
4.89014 0 0
4.89014 0 0
5.13403 0 0
5.13403 0 0
5.37793 0 0
5.37793 0 0
5.62183 0 0
5.62183 0 0
5.86572 0 0
5.86572 0 0
6.10962 0 0
6.10962 0 0
6.35352 0 0
6.35352 0 0
6.59741 0 0
6.59741 0 0
6.84131 0 0
6.84131 0 0
7.08521 0 0
7.08521 0 0
7.3291 0 0
7.3291 0 0
7.573 0 0
7.573 0 0
7.81689 0 0
7.81689 0 0
8.06079 0 0
8.06079 0 0
8.30469 0 0
8.30469 0 0
8.54858 0 0
8.54858 0 0
8.79248 0 0
8.79248 0 0
9.03638 0 0
9.03638 0 0
9.28027 0 0
9.28027 0 0
9.52417 0 0
9.52417 0 0
9.76807 0 0
9.76807 0 0
10.012 0 0
10.012 0 0
10.2559 0 0
10.2559 0 0
10.4998 0 0
10.4998 0 0
10.7437 0 0
10.7437 0 0
10.9875 0 0
10.9875 0 0
11.2314 0 0
11.2314 0 0
11.4753 0 0
11.4753 0 0
11.7192 0 0
11.7192 0 0
11.9631 0 0
11.9631 0 0
12.207 0 0
12.207 0 0
12.4509 0 0
12.4509 0 0
12.6948 0 0
12.6948 0 0
12.9387 0 0
12.9387 0 0
13.1826 0 0
13.1826 0 0
13.4265 0 0
13.4265 0 0
13.6704 0 0
13.6704 0 0
13.9143 0 0
13.9143 0 0
14.1582 0 0
14.1582 0 0
14.4021 0 0
14.4021 0 0
14.646 0 0
14.646 0 0
14.8899 0 0
14.8899 0 0
15.1338 0 0
15.1338 0 0
15.3777 0 0
15.3777 0 0
15.6216 0 0
15.6216 0 0
15.8655 0 0
15.8655 0 0
16.1094 0 0
16.1094 0 0
16.3533 0 0
16.3533 0 0
16.5972 0 0
16.5972 0 0
16.8411 0 0
16.8411 0 0
17.085 0 0
17.085 0 0
17.3289 0 0
17.3289 0 0
17.5728 0 0
17.5728 0 0
17.8167 0 0
17.8167 0 0
18.0605 0 0
18.0605 0 0
18.3044 0 0
18.3044 0 0
18.5483 0 0
18.5483 0 0
18.7922 0 0
18.7922 0 0
19.0361 0 0
19.0361 0 0
19.28 0 0
19.28 0 0
19.5239 0 0
19.5239 0 0
19.7678 0 0
19.7678 0 0
20.0117 0 0
20.0117 0 0
20.2556 0 0
20.2556 0 0
20.4995 0 0
20.4995 0 0
20.7434 0 0
20.7434 0 0
20.9873 0 0
20.9873 0 0
21.2312 0 0
21.2312 0 0
21.4751 0 0
21.4751 0 0
21.719 0 0
21.719 0 0
21.9629 0 0
21.9629 0 0
22.2068 0 0
22.2068 0 0
22.4507 0 0
22.4507 0 0
22.6946 0 0
22.6946 0 0
22.9385 0 0
22.9385 0 0
23.1824 0 0
23.1824 0 0
23.4263 0 0
23.4263 0 0
23.6702 0 0
23.6702 0 0
23.9141 0 0
23.9141 0 0
24.158 0 0
24.158 0 0
24.4019 0 0
24.4019 0 0
24.6458 0 0
24.6458 0 0
24.8896 0 0
24.8896 0 0
25.1335 0 0
25.1335 0 0
25.3774 0 0
25.3774 0 0
25.6213 0 0
25.6213 0 0
25.8652 0 0
25.8652 0 0
26.1091 0 0
26.1091 0 0
26.353 0 0
26.353 0 0
26.5969 0 0
26.5969 0 0
26.8408 0 0
26.8408 0 0
27.0847 0 0
27.0847 0 0
27.3286 0 0
27.3286 0 0
27.5725 0 0
27.5725 0 0
27.8164 0 0
27.8164 0 0
28.0603 0 0
28.0603 0 0
28.3042 0 0
28.3042 0 0
28.5481 0 0
28.5481 0 0
28.792 0 0
28.792 0 0
29.0359 0 0
29.0359 0 0
29.2798 0 0
29.2798 0 0
29.5237 0 0
29.5237 0 0
29.7676 0 0
29.7676 0 0
30.0115 0 0
30.0115 0 0
30.2554 0 0
30.2554 0 0
30.4993 0 0
30.4993 0 0
30.7432 0 0
30.7432 0 0
30.9871 0 0
30.9871 0 0
31.231 0 0
31.231 0 0
31.4749 0 0
31.4749 0 0
31.7188 0 0
31.7188 0 0
31.9626 0 0
31.9626 0 0
32.2065 0 0
32.2065 0 0
32.4504 0 0
32.4504 0 0
32.6943 0 0
32.6943 0 0
32.9382 0 0
32.9382 0 0
33.1821 0 0
33.1821 0 0
33.426 0 0
33.426 0 0
33.6699 0 0
33.6699 0 0
33.9138 0 0
33.9138 0 0
34.1577 0 0
34.1577 0 0
34.4016 0 0
34.4016 0 0
34.6455 0 0
34.6455 0 0
34.8894 0 0
34.8894 0 0
35.1333 0 0
35.1333 0 0
35.3772 0 0
35.3772 0 0
35.6211 0 0
35.6211 0 0
35.865 0 0
35.865 0 0
36.1089 0 0
36.1089 0 0
36.3528 0 0
36.3528 0 0
36.5967 0 0
36.5967 0 0
36.8406 0 0
36.8406 0 0
37.0845 0 0
37.0845 0 0
37.3284 0 0
37.3284 0 0
37.5723 0 0
37.5723 0 0
37.8162 0 0
37.8162 0 0
38.0601 0 0
38.0601 0 0
38.304 0 0
38.304 0 0
38.5479 0 0
38.5479 0 0
38.7917 0 0
38.7917 0 0
39.0356 0 0
39.0356 0 0
39.2795 0 0
39.2795 0 0
39.5234 0 0
39.5234 0 0
39.7673 0 0
39.7673 0 0
40.0112 0 0
40.0112 0 0
40.2551 0 0
40.2551 0 0
40.499 0 0
40.499 0 0
40.7429 0 0
40.7429 0 0
40.9868 0 0
40.9868 0 0
41.2307 0 0
41.2307 0 0
41.4746 0 0
41.4746 0 0
41.7185 0 0
41.7185 0 0
41.9624 0 0
41.9624 0 0
42.2063 0 0
42.2063 0 0
42.4502 0 0
42.4502 0 0
42.6941 0 0
42.6941 0 0
42.938 0 0
42.938 0 0
43.1819 0 0
43.1819 0 0
43.4258 0 0
43.4258 0 0
43.6697 0 0
43.6697 0 0
43.9136 0 0
43.9136 0 0
44.1575 0 0
44.1575 0 0
44.4014 0 0
44.4014 0 0
44.6453 0 0
44.6453 0 0
44.8892 0 0
44.8892 0 0
45.1331 0 0
45.1331 0 0
45.377 0 0
45.377 0 0
45.6208 0 0
45.6208 0 0
45.8647 0 0
45.8647 0 0
46.1086 0 0
46.1086 0 0
46.3525 0 0
46.3525 0 0
46.5964 0 0
46.5964 0 0
46.8403 0 0
46.8403 0 0
47.0842 0 0
47.0842 0 0
47.3281 0 0
47.3281 0 0
47.572 0 0
47.572 0 0
47.8159 0 0
47.8159 0 0
48.0598 0 0
48.0598 0 0
48.3037 0 0
48.3037 0 0
48.5476 0 0
48.5476 0 0
48.7915 0 0
48.7915 0 0
49.0354 0 0
49.0354 0 0
49.2793 0 0
49.2793 0 0
49.5232 0 0
49.5232 0 0
49.7671 0 0
49.7671 0 0
50.011 0 0
50.011 0 0
50.2549 0 0
50.2549 0 0
50.4988 0 0
50.4988 0 0
50.7427 0 0
50.7427 0 0
50.9866 0 0
50.9866 0 0
51.2305 0 0
51.2305 0 0
51.4744 0 0
51.4744 0 0
51.7183 0 0
51.7183 0 0
51.9622 0 0
51.9622 0 0
52.2061 0 0
52.2061 0 0
52.45 0 0
52.45 0 0
52.6938 0 0
52.6938 0 0
52.9377 0 0
52.9377 0 0
53.1816 0 0
53.1816 0 0
53.4255 0 0
53.4255 0 0
53.6694 0 0
53.6694 0 0
53.9133 0 0
53.9133 0 0
54.1572 0 0
54.1572 0 0
54.4011 0 0
54.4011 0 0
54.645 0 0
54.645 0 0
54.8889 0 0
54.8889 0 0
55.1328 0 0
55.1328 0 0
55.3767 0 0
55.3767 0 0
55.6206 0 0
55.6206 0 0
55.8645 0 0
55.8645 0 0
56.1084 0 0
56.1084 0 0
56.3523 0 0
56.3523 0 0
56.5962 0 0
56.5962 0 0
56.8401 0 0
56.8401 0 0
57.084 0 0
57.084 0 0
57.3279 0 0
57.3279 0 0
57.5718 0 0
57.5718 0 0
57.8157 0 0
57.8157 0 0
58.0596 0 0
58.0596 0 0
58.3035 0 0
58.3035 0 0
58.5474 0 0
58.5474 0 0
58.7913 0 0
58.7913 0 0
59.0352 0 0
59.0352 0 0
59.2791 0 0
59.2791 0 0
59.5229 0 0
59.5229 0 0
59.7668 0 0
59.7668 0 0
60.0107 0 0
60.0107 0 0
60.2546 0 0
60.2546 0 0
60.4985 0 0
60.4985 0 0
60.7424 0 0
60.7424 0 0
60.9863 0 0
60.9863 0 0
61.2302 0 0
61.2302 0 0
61.4741 0 0
61.4741 0 0
61.718 0 0
61.718 0 0
61.9619 0 0
61.9619 0 0
62.2058 0 0
62.2058 0 0
62.4497 0 0
62.4497 0 0
62.6936 0 0
62.6936 0 0
62.9375 0 0
62.9375 0 0
63.1814 0 0
63.1814 0 0
63.4253 0 0
63.4253 0 0
63.6692 0 0
63.6692 0 0
63.9131 0 0
63.9131 0 0
64.157 0 0
64.157 0 0
64.4009 0 0
64.4009 0 0
64.6448 0 0
64.6448 0 0
64.8887 0 0
64.8887 0 0
65.1326 0 0
65.1326 0 0
65.3765 0 0
65.3765 0 0
65.6204 0 0
65.6204 0 0
65.8643 0 0
65.8643 0 0
66.1082 0 0
66.1082 0 0
66.3521 0 0
66.3521 0 0
66.5959 0 0
66.5959 0 0
66.8398 0 0
66.8398 0 0
67.0837 0 0
67.0837 0 0
67.3276 0 0
67.3276 0 0
67.5715 0 0
67.5715 0 0
67.8154 0 0
67.8154 0 0
68.0593 0 0
68.0593 0 0
68.3032 0 0
68.3032 0 0
68.5471 0 0
68.5471 0 0
68.791 0 0
68.791 0 0
69.0349 0 0
69.0349 0 0
69.2788 0 0
69.2788 0 0
69.5227 0 0
69.5227 0 0
69.7666 0 0
69.7666 0 0
70.0105 0 0
70.0105 0 0
70.2544 0 0
70.2544 0 0
70.4983 0 0
70.4983 0 0
70.7422 0 0
70.7422 0 0
70.9861 0 0
70.9861 0 0
71.23 0 0
71.23 0 0
71.4739 0 0
71.4739 0 0
71.7178 0 0
71.7178 0 0
71.9617 0 0
71.9617 0 0
72.2056 0 0
72.2056 0 0
72.4495 0 0
72.4495 0 0
72.6934 0 0
72.6934 0 0
72.9373 0 0
72.9373 0 0
73.1812 0 0
73.1812 0 0
73.425 0 0
73.425 0 0
73.6689 0 0
73.6689 0 0
73.9128 0 0
73.9128 0 0
74.1567 0 0
74.1567 0 0
74.4006 0 0
74.4006 0 0
74.6445 0 0
74.6445 0 0
74.8884 0 0
74.8884 0 0
75.1323 0 0
75.1323 0 0
75.3762 0 0
75.3762 0 0
75.6201 0 0
75.6201 0 0
75.864 0 0
75.864 0 0
76.1079 0 0
76.1079 0 0
76.3518 0 0
76.3518 0 0
76.5957 0 0
76.5957 0 0
76.8396 0 0
76.8396 0 0
77.0835 0 0
77.0835 0 0
77.3274 0 0
77.3274 0 0
77.5713 0 0
77.5713 0 0
77.8152 0 0
77.8152 0 0
78.0591 0 0
78.0591 0 0
78.303 0 0
78.303 0 0
78.5469 0 0
78.5469 0 0
78.7908 0 0
78.7908 0 0
79.0347 0 0
79.0347 0 0
79.2786 0 0
79.2786 0 0
79.5225 0 0
79.5225 0 0
79.7664 0 0
79.7664 0 0
80.0103 0 0
80.0103 0 0
80.2542 0 0
80.2542 0 0
80.498 0 0
80.498 0 0
80.7419 0 0
80.7419 0 0
80.9858 0 0
80.9858 0 0
81.2297 0 0
81.2297 0 0
81.4736 0 0
81.4736 0 0
81.7175 0 0
81.7175 0 0
81.9614 0 0
81.9614 0 0
82.2053 0 0
82.2053 0 0
82.4492 0 0
82.4492 0 0
82.6931 0 0
82.6931 0 0
82.937 0 0
82.937 0 0
83.1809 0 0
83.1809 0 0
83.4248 0 0
83.4248 0 0
83.6687 0 0
83.6687 0 0
83.9126 0 0
83.9126 0 0
84.1565 0 0
84.1565 0 0
84.4004 0 0
84.4004 0 0
84.6443 0 0
84.6443 0 0
84.8882 0 0
84.8882 0 0
85.1321 0 0
85.1321 0 0
85.376 0 0
85.376 0 0
85.6199 0 0
85.6199 0 0
85.8638 0 0
85.8638 0 0
86.1077 0 0
86.1077 0 0
86.3516 0 0
86.3516 0 0
86.5955 0 0
86.5955 0 0
86.8394 0 0
86.8394 0 0
87.0833 0 0
87.0833 0 0
87.3271 0 0
87.3271 0 0
87.571 0 0
87.571 0 0
87.8149 0 0
87.8149 0 0
88.0588 0 0
88.0588 0 0
88.3027 0 0
88.3027 0 0
88.5466 0 0
88.5466 0 0
88.7905 0 0
88.7905 0 0
89.0344 0 0
89.0344 0 0
89.2783 0 0
89.2783 0 0
89.5222 0 0
89.5222 0 0
89.7661 0 0
89.7661 0 0
90.01 0 0
90.01 0 0
90.2539 0 0
90.2539 0 0
90.4978 0 0
90.4978 0 0
90.7417 0 0
90.7417 0 0
90.9856 0 0
90.9856 0 0
91.2295 0 0
91.2295 0 0
91.4734 0 0
91.4734 0 0
91.7173 0 0
91.7173 0 0
91.9612 0 0
91.9612 0 0
92.2051 0 0
92.2051 0 0
92.449 0 0
92.449 0 0
92.6929 0 0
92.6929 0 0
92.9368 0 0
92.9368 0 0
93.1807 0 0
93.1807 0 0
93.4246 0 0
93.4246 0 0
93.6685 0 0
93.6685 0 0
93.9124 0 0
93.9124 0 0
94.1562 0 0
94.1562 0 0
94.4001 0 0
94.4001 0 0
94.644 0 0
94.644 0 0
94.8879 0 0
94.8879 0 0
95.1318 0 0
95.1318 0 0
95.3757 0 0
95.3757 0 0
95.6196 0 0
95.6196 0 0
95.8635 0 0
95.8635 0 0
96.1074 0 0
96.1074 0 0
96.3513 0 0
96.3513 0 0
96.5952 0 0
96.5952 0 0
96.8391 0 0
96.8391 0 0
97.083 0 0
97.083 0 0
97.3269 0 0
97.3269 0 0
97.5708 0 0
97.5708 0 0
97.8147 0 0
97.8147 0 0
98.0586 0 0
98.0586 0 0
98.3025 0 0
98.3025 0 0
98.5464 0 0
98.5464 0 0
98.7903 0 0
98.7903 0 0
99.0342 0 0
99.0342 0 0
99.2781 0 0
99.2781 0 0
99.522 0 0
99.522 0 0
99.7659 0 0
99.7659 0 0
100.01 0 0
100.01 0 0
100.254 0 0
100.254 0 0
100.498 0 0
100.498 0 0
100.741 0 0
100.741 0 0
100.985 0 0
100.985 0 0
101.229 0 0
101.229 0 0
101.473 0 0
[...]
POINT_DATA 4096
SCALARS solution_0 double 1
LOOKUP_TABLE default
0.0134037 -4.22554 -4.22554 -0.905932 -0.905932 -0.181327 -0.181327 0.054368 0.054368 0.283667 0.283667 0.197467 0.197467 0.202619 0.202619 -0.077248 -0.077248 -0.0916468 -0.0916468 -0.0909144 -0.0909144 0.148013 0.148013 0.163357 0.163357 0.15739 0.15739 0.177562 0.177562 0.50635 0.50635 0.861875 0.861875 1.22049 1.22049 1.80624 1.80624 2.74501 2.74501 3.72524 3.72524 4.85993 4.85993 6.03837 6.03837 7.31491 7.31491 8.1165 8.1165 8.73687 8.73687 8.88921 8.88921 8.52593 8.52593 7.70802 7.70802 6.6623 6.6623 5.37482 5.37482 4.08268 4.08268 2.95029 2.95029 2.00589 2.00589 1.23094 1.23094 0.773436 0.773436 0.419829 0.419829 0.198977 0.198977 0.131229 0.131229 0.035354 0.035354 0.0199612 0.0199612 0.0169413 0.0169413 -0.00278398 -0.00278398 -0.00232262 -0.00232262 0.0123516 0.0123516 -0.0149256 -0.0149256 0.012175 0.012175 -0.0066075 -0.0066075 0.00227959 0.00227959 -0.00108373 -0.00108373 0.00245752 0.00245752 -0.00436248 -0.00436248 0.00495503 0.00495503 -0.00367545 -0.00367545 0.00129568 0.00129568 0.00083225 0.00083225 -0.00169025 -0.00169025 0.0011129 0.0011129 0.0002829 0.0002829 -0.00158064 -0.00158064 0.00210551 0.00210551 -0.00172576 -0.00172576 0.000811777 0.000811777 5.13117e-05 5.13117e-05 -0.000400629 -0.000400629 0.000106168 0.000106168 0.000620094 0.000620094 -0.00137942 -0.00137942 0.00180045 0.00180045 -0.00170295 -0.00170295 0.00114816 0.00114816 -0.000376029 -0.000376029 -0.000321535 -0.000321535 0.000725827 0.000725827 -0.000764004 -0.000764004 0.000510541 0.000510541 -0.000131347 -0.000131347 -0.000196102 -0.000196102 0.000351176 0.000351176 -0.000303704 -0.000303704 0.00010756 0.00010756 0.000135037 0.000135037 -0.000319517 -0.000319517 0.000376706 0.000376706 -0.000290838 -0.000290838 9.57623e-05 9.57623e-05 0.000144746 0.000144746 -0.000362614 -0.000362614 0.000507309 0.000507309 -0.000557644 -0.000557644 0.000521973 0.000521973 -0.000429315 -0.000429315 0.000316237 0.000316237 -0.000214526 -0.000214526 0.000143233 0.000143233 -0.000106482 -0.000106482 9.63132e-05 9.63132e-05 -9.84815e-05 -9.84815e-05 9.87327e-05 9.87327e-05 -8.7543e-05 -8.7543e-05 6.22538e-05 6.22538e-05 -2.6572e-05 -2.6572e-05 -1.18043e-05 -1.18043e-05 4.43039e-05 4.43039e-05 -6.42605e-05 -6.42605e-05 6.86201e-05 6.86201e-05 -5.83197e-05 -5.83197e-05 3.75116e-05 3.75116e-05 -1.20873e-05 -1.20873e-05 -1.19634e-05 -1.19634e-05 2.99007e-05 2.99007e-05 -3.902e-05 -3.902e-05 3.88117e-05 3.88117e-05 -3.06062e-05 -3.06062e-05 1.69139e-05 1.69139e-05 -6.86339e-07 -6.86339e-07 -1.53152e-05 -1.53152e-05 2.89404e-05 2.89404e-05 -3.88334e-05 -3.88334e-05 4.44196e-05 4.44196e-05 -4.57669e-05 -4.57669e-05 4.33966e-05 4.33966e-05 -3.81024e-05 -3.81024e-05 3.08076e-05 3.08076e-05 -2.24671e-05 -2.24671e-05 1.40011e-05 1.40011e-05 -6.24562e-06 -6.24562e-06 -9.55252e-08 -9.55252e-08 4.49986e-06 4.49986e-06 -6.6719e-06 -6.6719e-06 6.57381e-06 6.57381e-06 -4.42913e-06 -4.42913e-06 6.92212e-07 6.92212e-07 4.01653e-06 4.01653e-06 -9.00075e-06 -9.00075e-06 1.35888e-05 1.35888e-05 -1.7227e-05 -1.7227e-05 1.95494e-05 1.95494e-05 -2.04129e-05 -2.04129e-05 1.98933e-05 1.98933e-05 -1.82475e-05 -1.82475e-05 1.58498e-05 1.58498e-05 -1.31175e-05 -1.31175e-05 1.04392e-05 1.04392e-05 -8.1184e-06 -8.1184e-06 6.33941e-06 6.33941e-06 -5.15904e-06 -5.15904e-06 4.52097e-06 4.52097e-06 -4.2872e-06 -4.2872e-06 4.27807e-06 4.27807e-06 -4.31252e-06 -4.31252e-06 4.24141e-06 4.24141e-06 -3.96919e-06 -3.96919e-06 3.46207e-06 3.46207e-06 -2.74365e-06 -2.74365e-06 1.88095e-06 1.88095e-06 -9.65092e-07 -9.65092e-07 9.08909e-08 9.08909e-08 6.60661e-07 6.60661e-07 -1.23452e-06 -1.23452e-06 1.6071e-06 1.6071e-06 -1.78539e-06 -1.78539e-06 1.80088e-06 1.80088e-06 -1.70047e-06 -1.70047e-06 1.53624e-06 1.53624e-06 -1.35626e-06 -1.35626e-06 1.19771e-06 1.19771e-06 -1.08318e-06 -1.08318e-06 1.02006e-06 1.02006e-06 -1.00269e-06 -1.00269e-06 1.01631e-06 1.01631e-06 -1.04181e-06 -1.04181e-06 1.06031e-06 1.06031e-06 -1.05685e-06 -1.05685e-06 1.02265e-06 1.02265e-06 -9.55862e-07 -9.55862e-07 8.6094e-07 8.6094e-07 -7.46995e-07 -7.46995e-07 6.2558e-07 6.2558e-07 -5.08398e-07 -5.08398e-07 4.05333e-07 4.05333e-07 -3.23086e-07 -3.23086e-07 2.64545e-07 2.64545e-07 -2.28872e-07 -2.28872e-07 2.12184e-07 2.12184e-07 -2.08617e-07 -2.08617e-07 2.11537e-07 2.11537e-07 -2.14691e-07 -2.14691e-07 2.13114e-07 2.13114e-07 -2.037e-07 -2.037e-07 1.85388e-07 1.85388e-07 -1.5901e-07 -1.5901e-07 1.26863e-07 1.26863e-07 -9.21347e-08 -9.21347e-08 5.8266e-08 5.8266e-08 -2.8384e-08 -2.8384e-08 4.85959e-09 4.85959e-09 1.09556e-08 1.09556e-08 -1.88051e-08 -1.88051e-08 1.9434e-08 1.9434e-08 -1.43662e-08 -1.43662e-08 5.6042e-09 5.6042e-09 4.69343e-09 4.69343e-09 -1.4509e-08 -1.4509e-08 2.21999e-08 2.21999e-08 -2.66484e-08 -2.66484e-08 2.73199e-08 2.73199e-08 -2.42381e-08 -2.42381e-08 1.78928e-08 1.78928e-08 -9.10517e-09 -9.10517e-09 -1.12556e-09 -1.12556e-09 1.17703e-08 1.17703e-08 -2.18954e-08 -2.18954e-08 3.07528e-08 3.07528e-08 -3.78309e-08 -3.78309e-08 4.2866e-08 4.2866e-08 -4.58221e-08 -4.58221e-08 4.68467e-08 4.68467e-08 -4.62142e-08 -4.62142e-08 4.42668e-08 4.42668e-08 -4.13603e-08 -4.13603e-08 3.78228e-08 3.78228e-08 -3.39267e-08 -3.39267e-08 2.98775e-08 2.98775e-08 -2.5814e-08 -2.5814e-08 2.18199e-08 2.18199e-08 -1.79404e-08 -1.79404e-08 1.42007e-08 1.42007e-08 -1.06227e-08 -1.06227e-08 7.23688e-09 7.23688e-09 -4.08907e-09 -4.08907e-09 1.24023e-09 1.24023e-09 1.23823e-09 1.23823e-09 -3.27327e-09 -3.27327e-09 4.80067e-09 4.80067e-09 -5.77541e-09 -5.77541e-09 6.18012e-09 6.18012e-09 -6.03036e-09 -6.03036e-09 5.37601e-09 5.37601e-09 -4.29872e-09 -4.29872e-09 2.90572e-09 2.90572e-09 -1.32105e-09 -1.32105e-09 -3.24854e-10 -3.24854e-10 1.90588e-09 1.90588e-09 -3.3101e-09 -3.3101e-09 4.44783e-09 4.44783e-09 -5.25715e-09 -5.25715e-09 5.70663e-09 5.70663e-09 -5.79513e-09 -5.79513e-09 5.54892e-09 5.54892e-09 -5.01685e-09 -5.01685e-09 4.26401e-09 4.26401e-09 -3.36463e-09 -3.36463e-09 2.39515e-09 2.39515e-09 -1.42781e-09 -1.42781e-09 5.2544e-10 5.2544e-10 2.62331e-10 2.62331e-10 -9.01215e-10 -9.01215e-10 1.37287e-09 1.37287e-09 -1.67408e-09 -1.67408e-09 1.81475e-09 1.81475e-09 -1.81518e-09 -1.81518e-09 1.70279e-09 1.70279e-09 -1.5088e-09 -1.5088e-09 1.26511e-09 1.26511e-09 -1.0016e-09 -1.0016e-09 7.44027e-10 7.44027e-10 -5.12659e-10 -5.12659e-10 3.21534e-10 3.21534e-10 -1.78422e-10 -1.78422e-10 8.52957e-11 8.52957e-11 -3.92307e-11 -3.92307e-11 3.35582e-11 3.35582e-11 -5.9142e-11 -5.9142e-11 1.05644e-10 1.05644e-10 -1.62667e-10 -1.62667e-10 2.20708e-10 2.20708e-10 -2.71855e-10 -2.71855e-10 3.10232e-10 3.10232e-10 -3.32176e-10 -3.32176e-10 3.362e-10 3.362e-10 -3.22761e-10 -3.22761e-10 2.93907e-10 2.93907e-10 -2.52836e-10 -2.52836e-10 2.03434e-10 2.03434e-10 -1.49833e-10 -1.49833e-10 9.60144e-11 9.60144e-11 -4.54989e-11 -4.54989e-11 1.11768e-12 1.11768e-12 3.51158e-11 3.51158e-11 -6.20474e-11 -6.20474e-11 7.93468e-11 7.93468e-11 -8.74106e-11 -8.74106e-11 8.72225e-11 8.72225e-11 -8.01897e-11 -8.01897e-11 6.79721e-11 6.79721e-11 -5.23201e-11 -5.23201e-11 3.49315e-11 3.49315e-11 -1.73362e-11 -1.73362e-11 8.13029e-13 8.13029e-13 1.36613e-11 1.36613e-11 -2.54309e-11 -2.54309e-11 3.41534e-11 3.41534e-11 -3.97695e-11 -3.97695e-11 4.24577e-11 4.24577e-11 -4.25787e-11 -4.25787e-11 4.06167e-11 4.06167e-11 -3.7121e-11 -3.7121e-11 3.26543e-11 3.26543e-11 -2.77481e-11 -2.77481e-11 2.28688e-11 2.28688e-11 -1.8395e-11 -1.8395e-11 1.46041e-11 1.46041e-11 -1.16703e-11 -1.16703e-11 9.66874e-12 9.66874e-12 -8.58785e-12 -8.58785e-12 8.34463e-12 8.34463e-12 -8.80309e-12 -8.80309e-12 9.79316e-12 9.79316e-12 -1.11289e-11 -1.11289e-11 1.26246e-11 1.26246e-11 -1.41086e-11 -1.41086e-11 1.5433e-11 1.5433e-11 -1.64812e-11 -1.64812e-11 1.71708e-11 1.71708e-11 -1.7455e-11 -1.7455e-11 1.73198e-11 1.73198e-11 -1.67811e-11 -1.67811e-11 1.58786e-11 1.58786e-11 -1.46705e-11 -1.46705e-11 1.32267e-11 1.32267e-11 -1.16231e-11 -1.16231e-11 9.9356e-12 9.9356e-12 -8.23602e-12 -8.23602e-12 6.58792e-12 6.58792e-12 -5.04415e-12 -5.04415e-12 3.64529e-12 3.64529e-12 -2.41906e-12 -2.41906e-12 1.38064e-12 1.38064e-12 -5.33684e-13 -5.33684e-13 -1.28148e-13 -1.28148e-13 6.19265e-13 6.19265e-13 -9.60068e-13 -9.60068e-13 1.17483e-12 1.17483e-12 -1.28969e-12 -1.28969e-12 1.33087e-12 1.33087e-12 -1.32312e-12 -1.32312e-12 1.28857e-12 1.28857e-12 -1.24589e-12 -1.24589e-12 1.20976e-12 1.20976e-12 -1.19072e-12 -1.19072e-12 1.19523e-12 1.19523e-12 -1.22604e-12 -1.22604e-12 1.28262e-12 1.28262e-12 -1.3618e-12 -1.3618e-12 1.45845e-12 1.45845e-12 -1.56612e-12 -1.56612e-12 1.67771e-12 1.67771e-12 -1.78605e-12 -1.78605e-12 1.88439e-12 1.88439e-12 -1.9668e-12 -1.9668e-12 2.02848e-12 2.02848e-12 -2.0659e-12 -2.0659e-12 2.07689e-12 2.07689e-12 -2.06062e-12 -2.06062e-12 2.01755e-12 2.01755e-12 -1.94923e-12 -1.94923e-12 1.85814e-12 1.85814e-12 -1.74748e-12 -1.74748e-12 1.62094e-12 1.62094e-12 -1.48249e-12 -1.48249e-12 1.33617e-12 1.33617e-12 -1.18592e-12 -1.18592e-12 1.03546e-12 1.03546e-12 -8.88105e-13 -8.88105e-13 7.46746e-13 7.46746e-13 -6.1377e-13 -6.1377e-13 4.91042e-13 4.91042e-13 -3.79911e-13 -3.79911e-13 2.81226e-13 2.81226e-13 -1.95386e-13 -1.95386e-13 1.22382e-13 1.22382e-13 -6.18625e-14 -6.18625e-14 1.31921e-14 1.31921e-14 2.44843e-14 2.44843e-14 -5.21825e-14 -5.21825e-14 7.10233e-14 7.10233e-14 -8.21833e-14 -8.21833e-14 8.68517e-14 8.68517e-14 -8.61948e-14 -8.61948e-14 8.1327e-14 8.1327e-14 -7.3288e-14 -7.3288e-14 6.30269e-14 6.30269e-14 -5.1391e-14 -5.1391e-14 3.9119e-14 3.9119e-14 -2.68391e-14 -2.68391e-14 1.50688e-14 1.50688e-14 -4.21902e-15 -4.21902e-15 -5.40114e-15 -5.40114e-15 1.35771e-14 1.35771e-14 -2.01807e-14 -2.01807e-14 2.51608e-14 2.51608e-14 -2.85339e-14 -2.85339e-14 3.03735e-14 3.03735e-14 -3.07998e-14 -3.07998e-14 2.99699e-14 2.99699e-14 -2.80669e-14 -2.80669e-14 2.52909e-14 2.52909e-14 -2.18495e-14 -2.18495e-14 1.79499e-14 1.79499e-14 -1.37914e-14 -1.37914e-14 9.55918e-15 9.55918e-15 -5.41924e-15 -5.41924e-15 1.51435e-15 1.51435e-15 2.03844e-15 2.03844e-15 -5.14933e-15 -5.14933e-15 7.75601e-15 7.75601e-15 -9.8229e-15 -9.8229e-15 1.13394e-14 1.13394e-14 -1.23174e-14 -1.23174e-14 1.27883e-14 1.27883e-14 -1.27991e-14 -1.27991e-14 1.24092e-14 1.24092e-14 -1.16859e-14 -1.16859e-14 1.07013e-14 1.07013e-14 -9.52832e-15 -9.52832e-15 8.23786e-15 8.23786e-15 -6.89602e-15 -6.89602e-15 5.56197e-15 5.56197e-15 -4.28639e-15 -4.28639e-15 3.11044e-15 3.11044e-15 -2.06528e-15 -2.06528e-15 1.17206e-15 1.17206e-15 -4.42399e-16 -4.42399e-16 -1.20833e-16 -1.20833e-16 5.2241e-16 5.2241e-16 -7.73471e-16 -7.73471e-16 8.9012e-16 8.9012e-16 -8.91992e-16 -8.91992e-16 8.0086e-16 8.0086e-16 -6.39336e-16 -6.39336e-16 4.2971e-16 4.2971e-16 -1.92974e-16 -1.92974e-16 -5.19579e-17 -5.19579e-17 2.88826e-16 2.88826e-16 -5.04385e-16 -5.04385e-16 6.88581e-16 6.88581e-16 -8.34541e-16 -8.34541e-16 9.38425e-16 9.38425e-16 -9.99143e-16 -9.99143e-16 1.01799e-15 1.01799e-15 -9.98237e-16 -9.98237e-16 9.44632e-16 9.44632e-16 -8.62981e-16 -8.62981e-16 7.59687e-16 7.59687e-16 -6.41342e-16 -6.41342e-16 5.14382e-16 5.14382e-16 -3.84788e-16 -3.84788e-16 2.57867e-16 2.57867e-16 -1.38087e-16 -1.38087e-16 2.89894e-17 2.89894e-17 6.68482e-17 6.68482e-17 -1.47791e-16 -1.47791e-16 2.13085e-16 2.13085e-16 -2.62761e-16 -2.62761e-16 2.97516e-16 2.97516e-16 -3.18578e-16 -3.18578e-16 3.27565e-16 3.27565e-16 -3.26353e-16 -3.26353e-16 3.16941e-16 3.16941e-16 -3.01342e-16 -3.01342e-16 2.81486e-16 2.81486e-16 -2.59139e-16 -2.59139e-16 2.35847e-16 2.35847e-16 -2.12901e-16 -2.12901e-16 1.91315e-16 1.91315e-16 -1.71828e-16 -1.71828e-16 1.5491e-16 1.5491e-16 -1.40793e-16 -1.40793e-16 1.29496e-16 1.29496e-16 -1.20866e-16 -1.20866e-16 1.14616e-16 1.14616e-16 -1.10363e-16 -1.10363e-16 1.07673e-16 1.07673e-16 -1.06086e-16 -1.06086e-16 1.05153e-16 1.05153e-16 -1.04459e-16 -1.04459e-16 1.03638e-16 1.03638e-16 -1.02391e-16 -1.02391e-16 1.00491e-16 1.00491e-16 -9.77858e-17 -9.77858e-17 9.41944e-17 9.41944e-17 -8.97037e-17 -8.97037e-17 8.43588e-17 8.43588e-17 -7.82538e-17 -7.82538e-17 7.15196e-17 7.15196e-17 -6.43135e-17 -6.43135e-17 5.68072e-17 5.68072e-17 -4.9177e-17 -4.9177e-17 4.15943e-17 4.15943e-17 -3.42183e-17 -3.42183e-17 2.71901e-17 2.71901e-17 -2.0628e-17 -2.0628e-17 1.46254e-17 1.46254e-17 -9.24907e-18 -9.24907e-18 4.5402e-18 4.5402e-18 -5.15188e-19 -5.15188e-19 -2.8318e-18 -2.8318e-18 5.52592e-18 5.52592e-18 -7.60821e-18 -7.60821e-18 9.13205e-18 9.13205e-18 -1.01595e-17 -1.01595e-17 1.07579e-17 1.07579e-17 -1.09965e-17 -1.09965e-17 1.09441e-17 1.09441e-17 -1.06662e-17 -1.06662e-17 1.02234e-17 1.02234e-17 -9.67026e-18 -9.67026e-18 9.05382e-18 9.05382e-18 -8.41361e-18 -8.41361e-18 7.78137e-18 7.78137e-18 -7.18132e-18 -7.18132e-18 6.63066e-18 6.63066e-18 -6.14027e-18 -6.14027e-18 5.7155e-18 5.7155e-18 -5.35711e-18 -5.35711e-18 5.06219e-18 5.06219e-18 -4.82505e-18 -4.82505e-18 4.63806e-18 4.63806e-18 -4.49245e-18 -4.49245e-18 4.37896e-18 4.37896e-18 -4.28838e-18 -4.28838e-18 4.21203e-18 4.21203e-18 -4.14206e-18 -4.14206e-18 4.07172e-18 4.07172e-18 -3.99544e-18 -3.99544e-18 3.90893e-18 3.90893e-18 -3.80912e-18 -3.80912e-18 3.69413e-18 3.69413e-18 -3.56316e-18 -3.56316e-18 3.41629e-18 3.41629e-18 -3.25443e-18 -3.25443e-18 3.07907e-18 3.07907e-18 -2.89218e-18 -2.89218e-18 2.69603e-18 2.69603e-18 -2.49309e-18 -2.49309e-18 2.2859e-18 2.2859e-18 -2.07697e-18 -2.07697e-18 1.8687e-18 1.8687e-18 -1.66333e-18 -1.66333e-18 1.46289e-18 1.46289e-18 -1.26919e-18 -1.26919e-18 1.08375e-18 1.08375e-18 -9.07881e-19 -9.07881e-19 7.42603e-19 7.42603e-19 -5.88713e-19 -5.88713e-19 4.46774e-19 4.46774e-19 -3.17139e-19 -3.17139e-19 1.99968e-19 1.99968e-19 -9.52517e-20 -9.52517e-20 2.82532e-21 2.82532e-21 7.76079e-20 7.76079e-20 -1.4646e-19 -1.4646e-19 2.04243e-19 2.04243e-19 -2.5155e-19 -2.5155e-19 2.89041e-19 2.89041e-19 -3.17432e-19 -3.17432e-19 3.37477e-19 3.37477e-19 -3.49959e-19 -3.49959e-19 3.55677e-19 3.55677e-19 -3.55434e-19 -3.55434e-19 3.50028e-19 3.50028e-19 -3.4024e-19 -3.4024e-19 3.26826e-19 3.26826e-19 -3.1051e-19 -3.1051e-19 2.91971e-19 2.91971e-19 -2.71845e-19 -2.71845e-19 2.50709e-19 2.50709e-19 -2.29086e-19 -2.29086e-19 2.07437e-19 2.07437e-19 -1.86161e-19 -1.86161e-19 1.65593e-19 1.65593e-19 -1.46007e-19 -1.46007e-19 1.27615e-19 1.27615e-19 -1.10574e-19 -1.10574e-19 9.49878e-20 9.49878e-20 -8.09094e-20 -8.09094e-20 6.83506e-20 6.83506e-20 -5.72851e-20 -5.72851e-20 4.76556e-20 4.76556e-20 -3.93792e-20 -3.93792e-20 3.23536e-20 3.23536e-20 -2.64632e-20 -2.64632e-20 2.15836e-20 2.15836e-20 -1.75873e-20 -1.75873e-20 1.43474e-20 1.43474e-20 -1.17414e-20 -1.17414e-20 9.65418e-21 9.65418e-21 -7.9805e-21 -7.9805e-21 6.62632e-21 6.62632e-21 -5.51007e-21 -5.51007e-21 4.56304e-21 4.56304e-21 -3.72938e-21 -3.72938e-21 2.96562e-21 2.96562e-21 -2.23984e-21 -2.23984e-21 1.53055e-21 1.53055e-21 -8.25424e-22 -8.25424e-22 1.19816e-22 1.19816e-22 5.84687e-22 5.84687e-22 -1.28176e-21 -1.28176e-21 1.96175e-21 1.96175e-21 -2.61301e-21 -2.61301e-21 3.22306e-21 3.22306e-21 -3.77959e-21 -3.77959e-21 4.27134e-21 4.27134e-21 -4.6887e-21 -4.6887e-21 5.02423e-21 5.02423e-21 -5.27293e-21 -5.27293e-21 5.43237e-21 5.43237e-21 -5.50273e-21 -5.50273e-21 5.48662e-21 5.48662e-21 -5.38892e-21 -5.38892e-21 5.21641e-21 5.21641e-21 -4.97747e-21 -4.97747e-21 4.68168e-21 4.68168e-21 -4.33942e-21 -4.33942e-21 3.9615e-21 3.9615e-21 -3.55876e-21 -3.55876e-21 3.14178e-21 3.14178e-21 -2.72055e-21 -2.72055e-21 2.30424e-21 2.30424e-21 -1.90104e-21 -1.90104e-21 1.51795e-21 1.51795e-21 -1.16078e-21 -1.16078e-21 8.34046e-22 8.34046e-22 -5.41019e-22 -5.41019e-22 2.83748e-22 2.83748e-22 -6.31531e-23 -6.31531e-23 -1.20873e-22 -1.20873e-22 2.6934e-22 2.6934e-22 -3.8402e-22 -3.8402e-22 4.67305e-22 4.67305e-22 -5.2206e-22 -5.2206e-22 5.51481e-22 5.51481e-22 -5.58962e-22 -5.58962e-22 5.47973e-22 5.47973e-22 -5.2195e-22 -5.2195e-22 4.84207e-22 4.84207e-22 -4.37855e-22 -4.37855e-22 3.85744e-22 3.85744e-22 -3.30421e-22 -3.30421e-22 2.74104e-22 2.74104e-22 -2.18664e-22 -2.18664e-22 1.65627e-22 1.65627e-22 -1.16185e-22 -1.16185e-22 7.12125e-23 7.12125e-23 -3.12938e-23 -3.12938e-23 -3.24691e-24 -3.24691e-24 3.23109e-23 3.23109e-23 -5.59893e-23 -5.59893e-23 7.45269e-23 7.45269e-23 -8.82872e-23 -8.82872e-23 9.77193e-23 9.77193e-23 -1.03328e-22 -1.03328e-22 1.05646e-22 1.05646e-22 -1.05211e-22 -1.05211e-22 1.02548e-22 1.02548e-22 -9.81511e-23 -9.81511e-23 9.24752e-23 9.24752e-23 -8.59249e-23 -8.59249e-23 7.88515e-23 7.88515e-23 -7.15509e-23 -7.15509e-23 6.42634e-23 6.42634e-23 -5.71766e-23 -5.71766e-23 5.04294e-23 5.04294e-23 -4.41167e-23 -4.41167e-23 3.82953e-23 3.82953e-23 -3.29902e-23 -3.29902e-23 2.82007e-23 2.82007e-23 -2.39061e-23 -2.39061e-23 2.00719e-23 2.00719e-23 -1.66541e-23 -1.66541e-23 1.36044e-23 1.36044e-23 -1.08731e-23 -1.08731e-23 8.41257e-24 8.41257e-24 -6.17942e-24 -6.17942e-24 4.13577e-24 4.13577e-24 -2.25038e-24 -2.25038e-24 4.9892e-25 4.9892e-25 1.13605e-24 1.13605e-24 -2.66562e-24 -2.66562e-24 4.09525e-24 4.09525e-24 -5.42568e-24 -5.42568e-24 6.65407e-24 6.65407e-24 -7.775e-24 -7.775e-24 8.78162e-24 8.78162e-24 -9.66661e-24 -9.66661e-24 1.04231e-23 1.04231e-23 -1.10453e-23 -1.10453e-23 1.15295e-23 1.15295e-23 -1.18738e-23 -1.18738e-23 1.2079e-23 1.2079e-23 -1.21485e-23 -1.21485e-23 1.20882e-23 1.20882e-23 -1.19065e-23 -1.19065e-23 1.16137e-23 1.16137e-23 -1.12221e-23 -1.12221e-23 1.07454e-23 1.07454e-23 -1.01981e-23 -1.01981e-23 9.59557e-24 9.59557e-24 -8.95293e-24 -8.95293e-24 8.28517e-24 8.28517e-24 -7.60656e-24 -7.60656e-24 6.93034e-24 6.93034e-24 -6.2685e-24 -6.2685e-24 5.6315e-24 5.6315e-24 -5.02819e-24 -5.02819e-24 4.46568e-24 4.46568e-24 -3.94933e-24 -3.94933e-24 3.48279e-24 3.48279e-24 -3.06803e-24 -3.06803e-24 2.70553e-24 2.70553e-24 -2.39435e-24 -2.39435e-24 2.13237e-24 2.13237e-24 -1.91644e-24 -1.91644e-24 1.74261e-24 1.74261e-24 -1.6063e-24 -1.6063e-24 1.50254e-24 1.50254e-24 -1.42615e-24 -1.42615e-24 1.37188e-24 1.37188e-24 -1.3346e-24 -1.3346e-24 1.30945e-24 1.30945e-24 -1.29191e-24 -1.29191e-24 1.27791e-24 1.27791e-24 -1.26391e-24 -1.26391e-24 1.24692e-24 1.24692e-24 -1.22455e-24 -1.22455e-24 1.19497e-24 1.19497e-24 -1.15692e-24 -1.15692e-24 1.10971e-24 1.10971e-24 -1.0531e-24 -1.0531e-24 9.87323e-25 9.87323e-25 -9.12981e-25 -9.12981e-25 8.31e-25 8.31e-25 -7.42557e-25 -7.42557e-25 6.49018e-25 6.49018e-25 -5.51873e-25 -5.51873e-25 4.52676e-25 4.52676e-25 -3.52991e-25 -3.52991e-25 2.54343e-25 2.54343e-25 -1.58174e-25 -1.58174e-25 6.58135e-26 6.58135e-26 2.15571e-26 2.15571e-26 -1.02919e-25 -1.02919e-25 1.77433e-25 1.77433e-25 -2.44445e-25 -2.44445e-25 3.03488e-25 3.03488e-25 -3.54277e-25 -3.54277e-25 3.96702e-25 3.96702e-25 -4.30817e-25 -4.30817e-25 4.5682e-25 4.5682e-25 -4.75039e-25 -4.75039e-25 4.85915e-25 4.85915e-25 -4.89977e-25 -4.89977e-25 4.87825e-25 4.87825e-25 -4.80113e-25 -4.80113e-25 4.67525e-25 4.67525e-25 -4.50761e-25 -4.50761e-25 4.30522e-25 4.30522e-25 -4.07491e-25 -4.07491e-25 3.82328e-25 3.82328e-25 -3.55653e-25 -3.55653e-25 3.28041e-25 3.28041e-25 -3.00017e-25 -3.00017e-25 2.72049e-25 2.72049e-25 -2.44546e-25 -2.44546e-25 2.17859e-25 2.17859e-25 -1.92279e-25 -1.92279e-25 1.6804e-25 1.6804e-25 -1.45321e-25 -1.45321e-25 1.2425e-25 1.2425e-25 -1.04909e-25 -1.04909e-25 8.73369e-26 8.73369e-26 -7.1537e-26 -7.1537e-26 5.74792e-26 5.74792e-26 -4.51073e-26 -4.51073e-26 3.43428e-26 3.43428e-26 -2.50905e-26 -2.50905e-26 1.72423e-26 1.72423e-26 -1.06817e-26 -1.06817e-26 5.28737e-27 5.28737e-27 -9.36372e-28 -9.36372e-28 -2.49305e-27 -2.49305e-27 5.1191e-27 5.1191e-27 -7.05454e-27 -7.05454e-27 8.40517e-27 8.40517e-27 -9.26881e-27 -9.26881e-27 9.73451e-27 9.73451e-27 -9.88214e-27 -9.88214e-27 9.78232e-27 9.78232e-27 -9.49643e-27 -9.49643e-27 9.07702e-27 9.07702e-27 -8.5682e-27 -8.5682e-27 8.00627e-27 8.00627e-27 -7.42037e-27 -7.42037e-27 6.83324e-27 6.83324e-27 -6.26195e-27 -6.26195e-27 5.71866e-27 5.71866e-27 -5.21139e-27 -5.21139e-27 4.74473e-27 4.74473e-27 -4.32047e-27 -4.32047e-27 3.93824e-27 3.93824e-27 -3.59607e-27 -3.59607e-27 3.29083e-27 3.29083e-27 -3.01869e-27 -3.01869e-27 2.77541e-27 2.77541e-27 -2.55668e-27 -2.55668e-27 2.35834e-27 2.35834e-27 -2.1765e-27 -2.1765e-27 2.00771e-27 2.00771e-27