# vtk DataFile Version 3.0
#This file was generated by the deal.II library on 2020/8/11 at 22:16:27
ASCII
DATASET UNSTRUCTURED_GRID

POINTS 4096 double
0.5 0 0
0.743896 0 0
0.743896 0 0
0.987793 0 0
0.987793 0 0
1.23169 0 0
1.23169 0 0
1.47559 0 0
1.47559 0 0
1.71948 0 0
1.71948 0 0
1.96338 0 0
1.96338 0 0
2.20728 0 0
2.20728 0 0
2.45117 0 0
2.45117 0 0
2.69507 0 0
2.69507 0 0
2.93896 0 0
2.93896 0 0
3.18286 0 0
3.18286 0 0
3.42676 0 0
3.42676 0 0
3.67065 0 0
3.67065 0 0
3.91455 0 0
3.91455 0 0
4.15845 0 0
4.15845 0 0
4.40234 0 0
4.40234 0 0
4.64624 0 0
4.64624 0 0
4.89014 0 0
4.89014 0 0
5.13403 0 0
5.13403 0 0
5.37793 0 0
5.37793 0 0
5.62183 0 0
5.62183 0 0
5.86572 0 0
5.86572 0 0
6.10962 0 0
6.10962 0 0
6.35352 0 0
6.35352 0 0
6.59741 0 0
6.59741 0 0
6.84131 0 0
6.84131 0 0
7.08521 0 0
7.08521 0 0
7.3291 0 0
7.3291 0 0
7.573 0 0
7.573 0 0
7.81689 0 0
7.81689 0 0
8.06079 0 0
8.06079 0 0
8.30469 0 0
8.30469 0 0
8.54858 0 0
8.54858 0 0
8.79248 0 0
8.79248 0 0
9.03638 0 0
9.03638 0 0
9.28027 0 0
9.28027 0 0
9.52417 0 0
9.52417 0 0
9.76807 0 0
9.76807 0 0
10.012 0 0
10.012 0 0
10.2559 0 0
10.2559 0 0
10.4998 0 0
10.4998 0 0
10.7437 0 0
10.7437 0 0
10.9875 0 0
10.9875 0 0
11.2314 0 0
11.2314 0 0
11.4753 0 0
11.4753 0 0
11.7192 0 0
11.7192 0 0
11.9631 0 0
11.9631 0 0
12.207 0 0
12.207 0 0
12.4509 0 0
12.4509 0 0
12.6948 0 0
12.6948 0 0
12.9387 0 0
12.9387 0 0
13.1826 0 0
13.1826 0 0
13.4265 0 0
13.4265 0 0
13.6704 0 0
13.6704 0 0
13.9143 0 0
13.9143 0 0
14.1582 0 0
14.1582 0 0
14.4021 0 0
14.4021 0 0
14.646 0 0
14.646 0 0
14.8899 0 0
14.8899 0 0
15.1338 0 0
15.1338 0 0
15.3777 0 0
15.3777 0 0
15.6216 0 0
15.6216 0 0
15.8655 0 0
15.8655 0 0
16.1094 0 0
16.1094 0 0
16.3533 0 0
16.3533 0 0
16.5972 0 0
16.5972 0 0
16.8411 0 0
16.8411 0 0
17.085 0 0
17.085 0 0
17.3289 0 0
17.3289 0 0
17.5728 0 0
17.5728 0 0
17.8167 0 0
17.8167 0 0
18.0605 0 0
18.0605 0 0
18.3044 0 0
18.3044 0 0
18.5483 0 0
18.5483 0 0
18.7922 0 0
18.7922 0 0
19.0361 0 0
19.0361 0 0
19.28 0 0
19.28 0 0
19.5239 0 0
19.5239 0 0
19.7678 0 0
19.7678 0 0
20.0117 0 0
20.0117 0 0
20.2556 0 0
20.2556 0 0
20.4995 0 0
20.4995 0 0
20.7434 0 0
20.7434 0 0
20.9873 0 0
20.9873 0 0
21.2312 0 0
21.2312 0 0
21.4751 0 0
21.4751 0 0
21.719 0 0
21.719 0 0
21.9629 0 0
21.9629 0 0
22.2068 0 0
22.2068 0 0
22.4507 0 0
22.4507 0 0
22.6946 0 0
22.6946 0 0
22.9385 0 0
22.9385 0 0
23.1824 0 0
23.1824 0 0
23.4263 0 0
23.4263 0 0
23.6702 0 0
23.6702 0 0
23.9141 0 0
23.9141 0 0
24.158 0 0
24.158 0 0
24.4019 0 0
24.4019 0 0
24.6458 0 0
24.6458 0 0
24.8896 0 0
24.8896 0 0
25.1335 0 0
25.1335 0 0
25.3774 0 0
25.3774 0 0
25.6213 0 0
25.6213 0 0
25.8652 0 0
25.8652 0 0
26.1091 0 0
26.1091 0 0
26.353 0 0
26.353 0 0
26.5969 0 0
26.5969 0 0
26.8408 0 0
26.8408 0 0
27.0847 0 0
27.0847 0 0
27.3286 0 0
27.3286 0 0
27.5725 0 0
27.5725 0 0
27.8164 0 0
27.8164 0 0
28.0603 0 0
28.0603 0 0
28.3042 0 0
28.3042 0 0
28.5481 0 0
28.5481 0 0
28.792 0 0
28.792 0 0
29.0359 0 0
29.0359 0 0
29.2798 0 0
29.2798 0 0
29.5237 0 0
29.5237 0 0
29.7676 0 0
29.7676 0 0
30.0115 0 0
30.0115 0 0
30.2554 0 0
30.2554 0 0
30.4993 0 0
30.4993 0 0
30.7432 0 0
30.7432 0 0
30.9871 0 0
30.9871 0 0
31.231 0 0
31.231 0 0
31.4749 0 0
31.4749 0 0
31.7188 0 0
31.7188 0 0
31.9626 0 0
31.9626 0 0
32.2065 0 0
32.2065 0 0
32.4504 0 0
32.4504 0 0
32.6943 0 0
32.6943 0 0
32.9382 0 0
32.9382 0 0
33.1821 0 0
33.1821 0 0
33.426 0 0
33.426 0 0
33.6699 0 0
33.6699 0 0
33.9138 0 0
33.9138 0 0
34.1577 0 0
34.1577 0 0
34.4016 0 0
34.4016 0 0
34.6455 0 0
34.6455 0 0
34.8894 0 0
34.8894 0 0
35.1333 0 0
35.1333 0 0
35.3772 0 0
35.3772 0 0
35.6211 0 0
35.6211 0 0
35.865 0 0
35.865 0 0
36.1089 0 0
36.1089 0 0
36.3528 0 0
36.3528 0 0
36.5967 0 0
36.5967 0 0
36.8406 0 0
36.8406 0 0
37.0845 0 0
37.0845 0 0
37.3284 0 0
37.3284 0 0
37.5723 0 0
37.5723 0 0
37.8162 0 0
37.8162 0 0
38.0601 0 0
38.0601 0 0
38.304 0 0
38.304 0 0
38.5479 0 0
38.5479 0 0
38.7917 0 0
38.7917 0 0
39.0356 0 0
39.0356 0 0
39.2795 0 0
39.2795 0 0
39.5234 0 0
39.5234 0 0
39.7673 0 0
39.7673 0 0
40.0112 0 0
40.0112 0 0
40.2551 0 0
40.2551 0 0
40.499 0 0
40.499 0 0
40.7429 0 0
40.7429 0 0
40.9868 0 0
40.9868 0 0
41.2307 0 0
41.2307 0 0
41.4746 0 0
41.4746 0 0
41.7185 0 0
41.7185 0 0
41.9624 0 0
41.9624 0 0
42.2063 0 0
42.2063 0 0
42.4502 0 0
42.4502 0 0
42.6941 0 0
42.6941 0 0
42.938 0 0
42.938 0 0
43.1819 0 0
43.1819 0 0
43.4258 0 0
43.4258 0 0
43.6697 0 0
43.6697 0 0
43.9136 0 0
43.9136 0 0
44.1575 0 0
44.1575 0 0
44.4014 0 0
44.4014 0 0
44.6453 0 0
44.6453 0 0
44.8892 0 0
44.8892 0 0
45.1331 0 0
45.1331 0 0
45.377 0 0
45.377 0 0
45.6208 0 0
45.6208 0 0
45.8647 0 0
45.8647 0 0
46.1086 0 0
46.1086 0 0
46.3525 0 0
46.3525 0 0
46.5964 0 0
46.5964 0 0
46.8403 0 0
46.8403 0 0
47.0842 0 0
47.0842 0 0
47.3281 0 0
47.3281 0 0
47.572 0 0
47.572 0 0
47.8159 0 0
47.8159 0 0
48.0598 0 0
48.0598 0 0
48.3037 0 0
48.3037 0 0
48.5476 0 0
48.5476 0 0
48.7915 0 0
48.7915 0 0
49.0354 0 0
49.0354 0 0
49.2793 0 0
49.2793 0 0
49.5232 0 0
49.5232 0 0
49.7671 0 0
49.7671 0 0
50.011 0 0
50.011 0 0
50.2549 0 0
50.2549 0 0
50.4988 0 0
50.4988 0 0
50.7427 0 0
50.7427 0 0
50.9866 0 0
50.9866 0 0
51.2305 0 0
51.2305 0 0
51.4744 0 0
51.4744 0 0
51.7183 0 0
51.7183 0 0
51.9622 0 0
51.9622 0 0
52.2061 0 0
52.2061 0 0
52.45 0 0
52.45 0 0
52.6938 0 0
52.6938 0 0
52.9377 0 0
52.9377 0 0
53.1816 0 0
53.1816 0 0
53.4255 0 0
53.4255 0 0
53.6694 0 0
53.6694 0 0
53.9133 0 0
53.9133 0 0
54.1572 0 0
54.1572 0 0
54.4011 0 0
54.4011 0 0
54.645 0 0
54.645 0 0
54.8889 0 0
54.8889 0 0
55.1328 0 0
55.1328 0 0
55.3767 0 0
55.3767 0 0
55.6206 0 0
55.6206 0 0
55.8645 0 0
55.8645 0 0
56.1084 0 0
56.1084 0 0
56.3523 0 0
56.3523 0 0
56.5962 0 0
56.5962 0 0
56.8401 0 0
56.8401 0 0
57.084 0 0
57.084 0 0
57.3279 0 0
57.3279 0 0
57.5718 0 0
57.5718 0 0
57.8157 0 0
57.8157 0 0
58.0596 0 0
58.0596 0 0
58.3035 0 0
58.3035 0 0
58.5474 0 0
58.5474 0 0
58.7913 0 0
58.7913 0 0
59.0352 0 0
59.0352 0 0
59.2791 0 0
59.2791 0 0
59.5229 0 0
59.5229 0 0
59.7668 0 0
59.7668 0 0
60.0107 0 0
60.0107 0 0
60.2546 0 0
60.2546 0 0
60.4985 0 0
60.4985 0 0
60.7424 0 0
60.7424 0 0
60.9863 0 0
60.9863 0 0
61.2302 0 0
61.2302 0 0
61.4741 0 0
61.4741 0 0
61.718 0 0
61.718 0 0
61.9619 0 0
61.9619 0 0
62.2058 0 0
62.2058 0 0
62.4497 0 0
62.4497 0 0
62.6936 0 0
62.6936 0 0
62.9375 0 0
62.9375 0 0
63.1814 0 0
63.1814 0 0
63.4253 0 0
63.4253 0 0
63.6692 0 0
63.6692 0 0
63.9131 0 0
63.9131 0 0
64.157 0 0
64.157 0 0
64.4009 0 0
64.4009 0 0
64.6448 0 0
64.6448 0 0
64.8887 0 0
64.8887 0 0
65.1326 0 0
65.1326 0 0
65.3765 0 0
65.3765 0 0
65.6204 0 0
65.6204 0 0
65.8643 0 0
65.8643 0 0
66.1082 0 0
66.1082 0 0
66.3521 0 0
66.3521 0 0
66.5959 0 0
66.5959 0 0
66.8398 0 0
66.8398 0 0
67.0837 0 0
67.0837 0 0
67.3276 0 0
67.3276 0 0
67.5715 0 0
67.5715 0 0
67.8154 0 0
67.8154 0 0
68.0593 0 0
68.0593 0 0
68.3032 0 0
68.3032 0 0
68.5471 0 0
68.5471 0 0
68.791 0 0
68.791 0 0
69.0349 0 0
69.0349 0 0
69.2788 0 0
69.2788 0 0
69.5227 0 0
69.5227 0 0
69.7666 0 0
69.7666 0 0
70.0105 0 0
70.0105 0 0
70.2544 0 0
70.2544 0 0
70.4983 0 0
70.4983 0 0
70.7422 0 0
70.7422 0 0
70.9861 0 0
70.9861 0 0
71.23 0 0
71.23 0 0
71.4739 0 0
71.4739 0 0
71.7178 0 0
71.7178 0 0
71.9617 0 0
71.9617 0 0
72.2056 0 0
72.2056 0 0
72.4495 0 0
72.4495 0 0
72.6934 0 0
72.6934 0 0
72.9373 0 0
72.9373 0 0
73.1812 0 0
73.1812 0 0
73.425 0 0
73.425 0 0
73.6689 0 0
73.6689 0 0
73.9128 0 0
73.9128 0 0
74.1567 0 0
74.1567 0 0
74.4006 0 0
74.4006 0 0
74.6445 0 0
74.6445 0 0
74.8884 0 0
74.8884 0 0
75.1323 0 0
75.1323 0 0
75.3762 0 0
75.3762 0 0
75.6201 0 0
75.6201 0 0
75.864 0 0
75.864 0 0
76.1079 0 0
76.1079 0 0
76.3518 0 0
76.3518 0 0
76.5957 0 0
76.5957 0 0
76.8396 0 0
76.8396 0 0
77.0835 0 0
77.0835 0 0
77.3274 0 0
77.3274 0 0
77.5713 0 0
77.5713 0 0
77.8152 0 0
77.8152 0 0
78.0591 0 0
78.0591 0 0
78.303 0 0
78.303 0 0
78.5469 0 0
78.5469 0 0
78.7908 0 0
78.7908 0 0
79.0347 0 0
79.0347 0 0
79.2786 0 0
79.2786 0 0
79.5225 0 0
79.5225 0 0
79.7664 0 0
79.7664 0 0
80.0103 0 0
80.0103 0 0
80.2542 0 0
80.2542 0 0
80.498 0 0
80.498 0 0
80.7419 0 0
80.7419 0 0
80.9858 0 0
80.9858 0 0
81.2297 0 0
81.2297 0 0
81.4736 0 0
81.4736 0 0
81.7175 0 0
81.7175 0 0
81.9614 0 0
81.9614 0 0
82.2053 0 0
82.2053 0 0
82.4492 0 0
82.4492 0 0
82.6931 0 0
82.6931 0 0
82.937 0 0
82.937 0 0
83.1809 0 0
83.1809 0 0
83.4248 0 0
83.4248 0 0
83.6687 0 0
83.6687 0 0
83.9126 0 0
83.9126 0 0
84.1565 0 0
84.1565 0 0
84.4004 0 0
84.4004 0 0
84.6443 0 0
84.6443 0 0
84.8882 0 0
84.8882 0 0
85.1321 0 0
85.1321 0 0
85.376 0 0
85.376 0 0
85.6199 0 0
85.6199 0 0
85.8638 0 0
85.8638 0 0
86.1077 0 0
86.1077 0 0
86.3516 0 0
86.3516 0 0
86.5955 0 0
86.5955 0 0
86.8394 0 0
86.8394 0 0
87.0833 0 0
87.0833 0 0
87.3271 0 0
87.3271 0 0
87.571 0 0
87.571 0 0
87.8149 0 0
87.8149 0 0
88.0588 0 0
88.0588 0 0
88.3027 0 0
88.3027 0 0
88.5466 0 0
88.5466 0 0
88.7905 0 0
88.7905 0 0
89.0344 0 0
89.0344 0 0
89.2783 0 0
89.2783 0 0
89.5222 0 0
89.5222 0 0
89.7661 0 0
89.7661 0 0
90.01 0 0
90.01 0 0
90.2539 0 0
90.2539 0 0
90.4978 0 0
90.4978 0 0
90.7417 0 0
90.7417 0 0
90.9856 0 0
90.9856 0 0
91.2295 0 0
91.2295 0 0
91.4734 0 0
91.4734 0 0
91.7173 0 0
91.7173 0 0
91.9612 0 0
91.9612 0 0
92.2051 0 0
92.2051 0 0
92.449 0 0
92.449 0 0
92.6929 0 0
92.6929 0 0
92.9368 0 0
92.9368 0 0
93.1807 0 0
93.1807 0 0
93.4246 0 0
93.4246 0 0
93.6685 0 0
93.6685 0 0
93.9124 0 0
93.9124 0 0
94.1562 0 0
94.1562 0 0
94.4001 0 0
94.4001 0 0
94.644 0 0
94.644 0 0
94.8879 0 0
94.8879 0 0
95.1318 0 0
95.1318 0 0
95.3757 0 0
95.3757 0 0
95.6196 0 0
95.6196 0 0
95.8635 0 0
95.8635 0 0
96.1074 0 0
96.1074 0 0
96.3513 0 0
96.3513 0 0
96.5952 0 0
96.5952 0 0
96.8391 0 0
96.8391 0 0
97.083 0 0
97.083 0 0
97.3269 0 0
97.3269 0 0
97.5708 0 0
97.5708 0 0
97.8147 0 0
97.8147 0 0
98.0586 0 0
98.0586 0 0
98.3025 0 0
98.3025 0 0
98.5464 0 0
98.5464 0 0
98.7903 0 0
98.7903 0 0
99.0342 0 0
99.0342 0 0
99.2781 0 0
99.2781 0 0
99.522 0 0
99.522 0 0
99.7659 0 0
99.7659 0 0
100.01 0 0
100.01 0 0
100.254 0 0
100.254 0 0
100.498 0 0
100.498 0 0
100.741 0 0
100.741 0 0
100.985 0 0
100.985 0 0
101.229 0 0
101.229 0 0
101.473 0 0
[...]
POINT_DATA 4096
SCALARS solution_0 double 1
LOOKUP_TABLE default
0.00634268 -6.18996 -6.18996 -1.71211 -1.71211 -0.722263 -0.722263 -0.307732 -0.307732 0.00724576 0.00724576 0.106943 0.106943 0.249576 0.249576 0.187971 0.187971 0.175344 0.175344 -0.0552922 -0.0552922 -0.0455937 -0.0455937 -0.13729 -0.13729 0.0917405 0.0917405 0.144122 0.144122 0.221264 0.221264 0.159567 0.159567 0.37685 0.37685 0.685514 0.685514 1.13322 1.13322 1.58317 1.58317 2.26551 2.26551 3.25931 3.25931 4.32649 4.32649 5.41133 5.41133 6.54284 6.54284 7.59012 7.59012 8.28544 8.28544 8.55037 8.55037 8.46599 8.46599 7.9063 7.9063 6.94038 6.94038 5.77694 5.77694 4.5689 4.5689 3.36367 3.36367 2.31527 2.31527 1.54991 1.54991 0.931416 0.931416 0.52288 0.52288 0.296405 0.296405 0.147609 0.147609 0.0538961 0.0538961 0.0361925 0.0361925 0.0171368 0.0171368 -0.00900442 -0.00900442 0.0121459 0.0121459 -0.00158649 -0.00158649 -0.00337305 -0.00337305 0.00166556 0.00166556 0.00486838 0.00486838 -0.00937229 -0.00937229 0.00770408 0.00770408 -0.00103529 -0.00103529 -0.0056797 -0.0056797 0.00790908 0.00790908 -0.00468292 -0.00468292 -0.00130584 -0.00130584 0.00607819 0.00607819 -0.00710309 -0.00710309 0.00453658 0.00453658 -0.000530381 -0.000530381 -0.00249487 -0.00249487 0.00330265 0.00330265 -0.00222118 -0.00222118 0.000512996 0.000512996 0.000618926 0.000618926 -0.000705884 -0.000705884 6.48941e-05 6.48941e-05 0.000626789 0.000626789 -0.000850378 -0.000850378 0.000526485 0.000526485 4.3153e-05 4.3153e-05 -0.000450024 -0.000450024 0.000453329 0.000453329 -9.38522e-05 -9.38522e-05 -0.000381595 -0.000381595 0.000699478 0.000699478 -0.000718684 -0.000718684 0.000484997 0.000484997 -0.000172554 -0.000172554 -3.31937e-05 -3.31937e-05 3.68979e-05 3.68979e-05 0.00013126 0.00013126 -0.000351958 -0.000351958 0.000492865 0.000492865 -0.000478803 -0.000478803 0.000322105 0.000322105 -0.000105312 -0.000105312 -6.72587e-05 -6.72587e-05 0.000120917 0.000120917 -4.07058e-05 -4.07058e-05 -0.000129824 -0.000129824 0.00031527 0.00031527 -0.000444435 -0.000444435 0.000478696 0.000478696 -0.000422078 -0.000422078 0.000312188 0.000312188 -0.000199237 -0.000199237 0.000123893 0.000123893 -0.000103063 -0.000103063 0.00012775 0.00012775 -0.000171522 -0.000171522 0.000204241 0.000204241 -0.000204734 -0.000204734 0.000167716 0.000167716 -0.000103412 -0.000103412 3.13795e-05 3.13795e-05 2.81033e-05 2.81033e-05 -6.14567e-05 -6.14567e-05 6.55562e-05 6.55562e-05 -4.71487e-05 -4.71487e-05 1.89295e-05 1.89295e-05 5.7352e-06 5.7352e-06 -1.73736e-05 -1.73736e-05 1.28445e-05 1.28445e-05 4.77342e-06 4.77342e-06 -2.83172e-05 -2.83172e-05 4.961e-05 4.961e-05 -6.22895e-05 -6.22895e-05 6.35299e-05 6.35299e-05 -5.43274e-05 -5.43274e-05 3.85413e-05 3.85413e-05 -2.12368e-05 -2.12368e-05 6.98023e-06 6.98023e-06 1.3844e-06 1.3844e-06 -3.20637e-06 -3.20637e-06 -2.37878e-07 -2.37878e-07 6.51404e-06 6.51404e-06 -1.29689e-05 -1.29689e-05 1.7528e-05 1.7528e-05 -1.91513e-05 -1.91513e-05 1.78902e-05 1.78902e-05 -1.46202e-05 -1.46202e-05 1.05971e-05 1.05971e-05 -7.00675e-06 -7.00675e-06 4.63685e-06 4.63685e-06 -3.73842e-06 -3.73842e-06 4.07271e-06 4.07271e-06 -5.08847e-06 -5.08847e-06 6.14956e-06 6.14956e-06 -6.73738e-06 -6.73738e-06 6.57645e-06 6.57645e-06 -5.66504e-06 -5.66504e-06 4.22307e-06 4.22307e-06 -2.58966e-06 -2.58966e-06 1.10923e-06 1.10923e-06 -3.93422e-08 -3.93422e-08 -4.99849e-07 -4.99849e-07 5.30231e-07 5.30231e-07 -1.8332e-07 -1.8332e-07 -3.52703e-07 -3.52703e-07 8.88504e-07 8.88504e-07 -1.27717e-06 -1.27717e-06 1.43789e-06 1.43789e-06 -1.35862e-06 -1.35862e-06 1.0823e-06 1.0823e-06 -6.83906e-07 -6.83906e-07 2.46201e-07 2.46201e-07 1.5974e-07 1.5974e-07 -4.86039e-07 -4.86039e-07 7.11074e-07 7.11074e-07 -8.35885e-07 -8.35885e-07 8.7678e-07 8.7678e-07 -8.57083e-07 -8.57083e-07 8.00243e-07 8.00243e-07 -7.25445e-07 -7.25445e-07 6.4585e-07 6.4585e-07 -5.68854e-07 -5.68854e-07 4.97432e-07 4.97432e-07 -4.31729e-07 -4.31729e-07 3.70331e-07 3.70331e-07 -3.11051e-07 -3.11051e-07 2.51331e-07 2.51331e-07 -1.88536e-07 -1.88536e-07 1.20356e-07 1.20356e-07 -4.54308e-08 -4.54308e-08 -3.59212e-08 -3.59212e-08 1.2106e-07 1.2106e-07 -2.04761e-07 -2.04761e-07 2.79538e-07 2.79538e-07 -3.366e-07 -3.366e-07 3.67341e-07 3.67341e-07 -3.6507e-07 -3.6507e-07 3.26614e-07 3.26614e-07 -2.53411e-07 -2.53411e-07 1.5182e-07 1.5182e-07 -3.25382e-08 -3.25382e-08 -9.08193e-08 -9.08193e-08 2.03704e-07 2.03704e-07 -2.9284e-07 -2.9284e-07 3.48228e-07 3.48228e-07 -3.64615e-07 -3.64615e-07 3.4215e-07 3.4215e-07 -2.86181e-07 -2.86181e-07 2.06228e-07 2.06228e-07 -1.1438e-07 -1.1438e-07 2.33902e-08 2.33902e-08 5.51855e-08 5.51855e-08 -1.12515e-07 -1.12515e-07 1.43476e-07 1.43476e-07 -1.46992e-07 -1.46992e-07 1.25743e-07 1.25743e-07 -8.53495e-08 -8.53495e-08 3.32405e-08 3.32405e-08 2.2609e-08 2.2609e-08 -7.48431e-08 -7.48431e-08 1.1764e-07 1.1764e-07 -1.47271e-07 -1.47271e-07 1.6228e-07 1.6228e-07 -1.63303e-07 -1.63303e-07 1.52622e-07 1.52622e-07 -1.33564e-07 -1.33564e-07 1.09846e-07 1.09846e-07 -8.49999e-08 -8.49999e-08 6.19185e-08 6.19185e-08 -4.25917e-08 -4.25917e-08 2.80243e-08 2.80243e-08 -1.83156e-08 -1.83156e-08 1.28572e-08 1.28572e-08 -1.05938e-08 -1.05938e-08 1.02942e-08 1.02942e-08 -1.0788e-08 -1.0788e-08 1.11383e-08 1.11383e-08 -1.07374e-08 -1.07374e-08 9.32589e-09 9.32589e-09 -6.94967e-09 -6.94967e-09 3.87581e-09 3.87581e-09 -4.89779e-10 -4.89779e-10 -2.80415e-09 -2.80415e-09 5.66324e-09 5.66324e-09 -7.85788e-09 -7.85788e-09 9.29155e-09 9.29155e-09 -9.99275e-09 -9.99275e-09 1.0086e-08 1.0086e-08 -9.75178e-09 -9.75178e-09 9.184e-09 9.184e-09 -8.55438e-09 -8.55438e-09 7.98735e-09 7.98735e-09 -7.54885e-09 -7.54885e-09 7.24785e-09 7.24785e-09 -7.0482e-09 -7.0482e-09 6.88651e-09 6.88651e-09 -6.69197e-09 -6.69197e-09 6.40395e-09 6.40395e-09 -5.98479e-09 -5.98479e-09 5.42613e-09 5.42613e-09 -4.74876e-09 -4.74876e-09 3.99689e-09 3.99689e-09 -3.22885e-09 -3.22885e-09 2.50622e-09 2.50622e-09 -1.88347e-09 -1.88347e-09 1.39991e-09 1.39991e-09 -1.0749e-09 -1.0749e-09 9.06669e-10 9.06669e-10 -8.74601e-10 -8.74601e-10 9.44019e-10 9.44019e-10 -1.07255e-09 -1.07255e-09 1.21682e-09 1.21682e-09 -1.33849e-09 -1.33849e-09 1.40872e-09 1.40872e-09 -1.41084e-09 -1.41084e-09 1.34077e-09 1.34077e-09 -1.20579e-09 -1.20579e-09 1.02181e-09 1.02181e-09 -8.09907e-10 -8.09907e-10 5.92589e-10 5.92589e-10 -3.90504e-10 -3.90504e-10 2.19865e-10 2.19865e-10 -9.08842e-11 -9.08842e-11 7.28388e-12 7.28388e-12 3.32338e-11 3.32338e-11 -3.77655e-11 -3.77655e-11 1.65232e-11 1.65232e-11 1.90043e-11 1.90043e-11 -5.7771e-11 -5.7771e-11 9.05555e-11 9.05555e-11 -1.10873e-10 -1.10873e-10 1.1537e-10 1.1537e-10 -1.03729e-10 -1.03729e-10 7.81871e-11 7.81871e-11 -4.27788e-11 -4.27788e-11 2.47354e-12 2.47354e-12 3.76752e-11 3.76752e-11 -7.32482e-11 -7.32482e-11 1.00973e-10 1.00973e-10 -1.18997e-10 -1.18997e-10 1.26919e-10 1.26919e-10 -1.25624e-10 -1.25624e-10 1.16968e-10 1.16968e-10 -1.03383e-10 -1.03383e-10 8.74709e-11 8.74709e-11 -7.16342e-11 -7.16342e-11 5.77997e-11 5.77997e-11 -4.72447e-11 -4.72447e-11 4.05382e-11 4.05382e-11 -3.75859e-11 -3.75859e-11 3.77545e-11 3.77545e-11 -4.00482e-11 -4.00482e-11 4.33041e-11 4.33041e-11 -4.63794e-11 -4.63794e-11 4.8306e-11 4.8306e-11 -4.83992e-11 -4.83992e-11 4.63118e-11 4.63118e-11 -4.20372e-11 -4.20372e-11 3.58669e-11 3.58669e-11 -2.83174e-11 -2.83174e-11 2.00381e-11 2.00381e-11 -1.17166e-11 -1.17166e-11 3.99205e-12 3.99205e-12 2.61213e-12 2.61213e-12 -7.7329e-12 -7.7329e-12 1.11862e-11 1.11862e-11 -1.29621e-11 -1.29621e-11 1.32003e-11 1.32003e-11 -1.21533e-11 -1.21533e-11 1.01414e-11 1.01414e-11 -7.50881e-12 -7.50881e-12 4.58428e-12 4.58428e-12 -1.65041e-12 -1.65041e-12 -1.07576e-12 -1.07576e-12 3.45096e-12 3.45096e-12 -5.40368e-12 -5.40368e-12 6.92393e-12 6.92393e-12 -8.04777e-12 -8.04777e-12 8.8394e-12 8.8394e-12 -9.37368e-12 -9.37368e-12 9.72115e-12 9.72115e-12 -9.93719e-12 -9.93719e-12 1.0056e-11 1.0056e-11 -1.00893e-11 -1.00893e-11 1.00291e-11 1.00291e-11 -9.85391e-12 -9.85391e-12 9.53579e-12 9.53579e-12 -9.04879e-12 -9.04879e-12 8.37575e-12 8.37575e-12 -7.51365e-12 -7.51365e-12 6.47654e-12 6.47654e-12 -5.29579e-12 -5.29579e-12 4.01802e-12 4.01802e-12 -2.70102e-12 -2.70102e-12 1.40835e-12 1.40835e-12 -2.03307e-13 -2.03307e-13 -8.5691e-13 -8.5691e-13 1.72623e-12 1.72623e-12 -2.37344e-12 -2.37344e-12 2.7843e-12 2.7843e-12 -2.9619e-12 -2.9619e-12 2.92544e-12 2.92544e-12 -2.70754e-12 -2.70754e-12 2.35061e-12 2.35061e-12 -1.90263e-12 -1.90263e-12 1.41275e-12 1.41275e-12 -9.27274e-13 -9.27274e-13 4.86202e-13 4.86202e-13 -1.2069e-13 -1.2069e-13 -1.48467e-13 -1.48467e-13 3.11307e-13 3.11307e-13 -3.68201e-13 -3.68201e-13 3.2853e-13 3.2853e-13 -2.08756e-13 -2.08756e-13 3.01296e-14 3.01296e-14 1.83735e-13 1.83735e-13 -4.09169e-13 -4.09169e-13 6.24476e-13 6.24476e-13 -8.11525e-13 -8.11525e-13 9.56835e-13 9.56835e-13 -1.05212e-12 -1.05212e-12 1.09433e-12 1.09433e-12 -1.08521e-12 -1.08521e-12 1.03057e-12 1.03057e-12 -9.3922e-13 -9.3922e-13 8.21896e-13 8.21896e-13 -6.90085e-13 -6.90085e-13 5.54984e-13 5.54984e-13 -4.26612e-13 -4.26612e-13 3.13138e-13 3.13138e-13 -2.20458e-13 -2.20458e-13 1.52013e-13 1.52013e-13 -1.08827e-13 -1.08827e-13 8.97494e-14 8.97494e-14 -9.18326e-14 -9.18326e-14 1.10805e-13 1.10805e-13 -1.41591e-13 -1.41591e-13 1.78816e-13 1.78816e-13 -2.17279e-13 -2.17279e-13 2.52334e-13 2.52334e-13 -2.80189e-13 -2.80189e-13 2.98086e-13 2.98086e-13 -3.04383e-13 -3.04383e-13 2.9854e-13 2.9854e-13 -2.81017e-13 -2.81017e-13 2.53116e-13 2.53116e-13 -2.16778e-13 -2.16778e-13 1.74361e-13 1.74361e-13 -1.28419e-13 -1.28419e-13 8.14978e-14 8.14978e-14 -3.59539e-14 -3.59539e-14 -6.17846e-15 -6.17846e-15 4.32857e-14 4.32857e-14 -7.42267e-14 -7.42267e-14 9.83451e-14 9.83451e-14 -1.15446e-13 -1.15446e-13 1.25746e-13 1.25746e-13 -1.29798e-13 -1.29798e-13 1.28413e-13 1.28413e-13 -1.2257e-13 -1.2257e-13 1.13328e-13 1.13328e-13 -1.01755e-13 -1.01755e-13 8.88575e-14 8.88575e-14 -7.55322e-14 -7.55322e-14 6.25309e-14 6.25309e-14 -5.04408e-14 -5.04408e-14 3.96785e-14 3.96785e-14 -3.04971e-14 -3.04971e-14 2.30014e-14 2.30014e-14 -1.7171e-14 -1.7171e-14 1.28867e-14 1.28867e-14 -9.95879e-15 -9.95879e-15 8.15391e-15 8.15391e-15 -7.22029e-15 -7.22029e-15 6.90872e-15 6.90872e-15 -6.98923e-15 -6.98923e-15 7.26304e-15 7.26304e-15 -7.56981e-15 -7.56981e-15 7.79064e-15 7.79064e-15 -7.84747e-15 -7.84747e-15 7.69959e-15 7.69959e-15 -7.3382e-15 -7.3382e-15 6.77964e-15 6.77964e-15 -6.05825e-15 -6.05825e-15 5.21933e-15 5.21933e-15 -4.31276e-15 -4.31276e-15 3.38766e-15 3.38766e-15 -2.48818e-15 -2.48818e-15 1.65066e-15 1.65066e-15 -9.01952e-16 -9.01952e-16 2.58946e-16 2.58946e-16 2.71039e-16 2.71039e-16 -6.89101e-16 -6.89101e-16 1.00314e-15 1.00314e-15 -1.22596e-15 -1.22596e-15 1.37337e-15 1.37337e-15 -1.46233e-15 -1.46233e-15 1.50938e-15 1.50938e-15 -1.52939e-15 -1.52939e-15 1.53466e-15 1.53466e-15 -1.53442e-15 -1.53442e-15 1.53468e-15 1.53468e-15 -1.53836e-15 -1.53836e-15 1.54567e-15 1.54567e-15 -1.55468e-15 -1.55468e-15 1.56196e-15 1.56196e-15 -1.56325e-15 -1.56325e-15 1.55413e-15 1.55413e-15 -1.53053e-15 -1.53053e-15 1.48923e-15 1.48923e-15 -1.42816e-15 -1.42816e-15 1.34658e-15 1.34658e-15 -1.24513e-15 -1.24513e-15 1.12574e-15 1.12574e-15 -9.91461e-16 -9.91461e-16 8.46225e-16 8.46225e-16 -6.94549e-16 -6.94549e-16 5.41223e-16 5.41223e-16 -3.91005e-16 -3.91005e-16 2.48346e-16 2.48346e-16 -1.17155e-16 -1.17155e-16 6.18736e-19 6.18736e-19 9.89148e-17 9.89148e-17 -1.79994e-16 -1.79994e-16 2.42062e-16 2.42062e-16 -2.85404e-16 -2.85404e-16 3.11051e-16 3.11051e-16 -3.20653e-16 -3.20653e-16 3.1633e-16 3.1633e-16 -3.00518e-16 -3.00518e-16 2.75808e-16 2.75808e-16 -2.44809e-16 -2.44809e-16 2.10009e-16 2.10009e-16 -1.73682e-16 -1.73682e-16 1.37797e-16 1.37797e-16 -1.03972e-16 -1.03972e-16 7.34422e-17 7.34422e-17 -4.70614e-17 -4.70614e-17 2.53161e-17 2.53161e-17 -8.36142e-18 -8.36142e-18 -3.93136e-18 -3.93136e-18 1.19202e-17 1.19202e-17 -1.61334e-17 -1.61334e-17 1.72104e-17 1.72104e-17 -1.58472e-17 -1.58472e-17 1.27463e-17 1.27463e-17 -8.57597e-18 -8.57597e-18 3.93707e-18 3.93707e-18 6.59591e-19 6.59591e-19 -4.80746e-18 -4.80746e-18 8.20978e-18 8.20978e-18 -1.06777e-17 -1.06777e-17 1.21225e-17 1.21225e-17 -1.2543e-17 -1.2543e-17 1.20103e-17 1.20103e-17 -1.06506e-17 -1.06506e-17 8.62759e-18 8.62759e-18 -6.12594e-18 -6.12594e-18 3.33612e-18 3.33612e-18 -4.41593e-19 -4.41593e-19 -2.39144e-18 -2.39144e-18 5.0215e-18 5.0215e-18 -7.33651e-18 -7.33651e-18 9.25596e-18 9.25596e-18 -1.07308e-17 -1.07308e-17 1.17416e-17 1.17416e-17 -1.22949e-17 -1.22949e-17 1.24193e-17 1.24193e-17 -1.21602e-17 -1.21602e-17 1.15749e-17 1.15749e-17 -1.07278e-17 -1.07278e-17 9.68592e-18 9.68592e-18 -8.51484e-18 -8.51484e-18 7.27581e-18 7.27581e-18 -6.02328e-18 -6.02328e-18 4.80335e-18 4.80335e-18 -3.65294e-18 -3.65294e-18 2.59955e-18 2.59955e-18 -1.66165e-18 -1.66165e-18 8.49371e-19 8.49371e-19 -1.65629e-19 -1.65629e-19 -3.92666e-19 -3.92666e-19 8.33278e-19 8.33278e-19 -1.16733e-18 -1.16733e-18 1.40807e-18 1.40807e-18 -1.56979e-18 -1.56979e-18 1.66687e-18 1.66687e-18 -1.71305e-18 -1.71305e-18 1.7209e-18 1.7209e-18 -1.70142e-18 -1.70142e-18 1.66386e-18 1.66386e-18 -1.61564e-18 -1.61564e-18 1.56242e-18 1.56242e-18 -1.50821e-18 -1.50821e-18 1.45559e-18 1.45559e-18 -1.40594e-18 -1.40594e-18 1.35966e-18 1.35966e-18 -1.31644e-18 -1.31644e-18 1.27547e-18 1.27547e-18 -1.23566e-18 -1.23566e-18 1.19578e-18 1.19578e-18 -1.15461e-18 -1.15461e-18 1.11105e-18 1.11105e-18 -1.0642e-18 -1.0642e-18 1.01339e-18 1.01339e-18 -9.58208e-19 -9.58208e-19 8.9853e-19 8.9853e-19 -8.34473e-19 -8.34473e-19 7.66396e-19 7.66396e-19 -6.94871e-19 -6.94871e-19 6.20642e-19 6.20642e-19 -5.44594e-19 -5.44594e-19 4.67713e-19 4.67713e-19 -3.9105e-19 -3.9105e-19 3.1568e-19 3.1568e-19 -2.4267e-19 -2.4267e-19 1.73047e-19 1.73047e-19 -1.07763e-19 -1.07763e-19 4.7671e-20 4.7671e-20 6.49749e-21 6.49749e-21 -5.41548e-20 -5.41548e-20 9.48696e-20 9.48696e-20 -1.28377e-19 -1.28377e-19 1.54585e-19 1.54585e-19 -1.73569e-19 -1.73569e-19 1.85571e-19 1.85571e-19 -1.90985e-19 -1.90985e-19 1.90341e-19 1.90341e-19 -1.84287e-19 -1.84287e-19 1.73565e-19 1.73565e-19 -1.58982e-19 -1.58982e-19 1.41389e-19 1.41389e-19 -1.21648e-19 -1.21648e-19 1.00607e-19 1.00607e-19 -7.90764e-20 -7.90764e-20 5.78029e-20 5.78029e-20 -3.74542e-20 -3.74542e-20 1.86012e-20 1.86012e-20 -1.70794e-21 -1.70794e-21 -1.28751e-20 -1.28751e-20 2.49127e-20 2.49127e-20 -3.42828e-20 -3.42828e-20 4.09697e-20 4.09697e-20 -4.50549e-20 -4.50549e-20 4.67042e-20 4.67042e-20 -4.61532e-20 -4.61532e-20 4.36915e-20 4.36915e-20 -3.96465e-20 -3.96465e-20 3.43664e-20 3.43664e-20 -2.82054e-20 -2.82054e-20 2.15092e-20 2.15092e-20 -1.46027e-20 -1.46027e-20 7.77949e-21 7.77949e-21 -1.2944e-21 -1.2944e-21 -4.64236e-21 -4.64236e-21 9.86813e-21 9.86813e-21 -1.42686e-20 -1.42686e-20 1.77767e-20 1.77767e-20 -2.03694e-20 -2.03694e-20 2.20631e-20 2.20631e-20 -2.29084e-20 -2.29084e-20 2.29836e-20 2.29836e-20 -2.23877e-20 -2.23877e-20 2.12341e-20 2.12341e-20 -1.96436e-20 -1.96436e-20 1.77387e-20 1.77387e-20 -1.56381e-20 -1.56381e-20 1.34525e-20 1.34525e-20 -1.12804e-20 -1.12804e-20 9.20613e-21 9.20613e-21 -7.29788e-21 -7.29788e-21 5.60707e-21 5.60707e-21 -4.16837e-21 -4.16837e-21 3.00057e-21 3.00057e-21 -2.10792e-21 -2.10792e-21 1.48199e-21 1.48199e-21 -1.10374e-21 -1.10374e-21 9.45934e-22 9.45934e-22 -9.75396e-22 -9.75396e-22 1.15536e-21 1.15536e-21 -1.44759e-21 -1.44759e-21 1.81427e-21 1.81427e-21 -2.21966e-21 -2.21966e-21 2.63135e-21 2.63135e-21 -3.02132e-21 -3.02132e-21 3.36647e-21 3.36647e-21 -3.64908e-21 -3.64908e-21 3.85676e-21 3.85676e-21 -3.98233e-21 -3.98233e-21 4.02339e-21 4.02339e-21 -3.98177e-21 -3.98177e-21 3.86289e-21 3.86289e-21 -3.675e-21 -3.675e-21 3.42846e-21 3.42846e-21 -3.13501e-21 -3.13501e-21 2.80705e-21 2.80705e-21 -2.45703e-21 -2.45703e-21 2.0969e-21 2.0969e-21 -1.73771e-21 -1.73771e-21 1.38922e-21 1.38922e-21 -1.05971e-21 -1.05971e-21 7.55796e-22 7.55796e-22 -4.82424e-22 -4.82424e-22 2.42879e-22 2.42879e-22 -3.88866e-23 -3.88866e-23 -1.29242e-22 -1.29242e-22 2.62422e-22 2.62422e-22 -3.62591e-22 -3.62591e-22 4.3248e-22 4.3248e-22 -4.75404e-22 -4.75404e-22 4.95044e-22 4.95044e-22 -4.95254e-22 -4.95254e-22 4.79893e-22 4.79893e-22 -4.52678e-22 -4.52678e-22 4.17068e-22 4.17068e-22 -3.76179e-22 -3.76179e-22 3.32722e-22 3.32722e-22 -2.8897e-22 -2.8897e-22 2.46753e-22 2.46753e-22 -2.0746e-22 -2.0746e-22 1.72071e-22 1.72071e-22 -1.41195e-22 -1.41195e-22 1.15113e-22 1.15113e-22 -9.3835e-23 -9.3835e-23 7.71496e-23 7.71496e-23 -6.46807e-23 -6.46807e-23 5.59364e-23 5.59364e-23 -5.03552e-23 -5.03552e-23 4.73459e-23 4.73459e-23 -4.63217e-23 -4.63217e-23 4.67267e-23 4.67267e-23 -4.80561e-23 -4.80561e-23 4.98698e-23 4.98698e-23 -5.18008e-23 -5.18008e-23 5.35577e-23 5.35577e-23 -5.49233e-23 -5.49233e-23 5.57502e-23 5.57502e-23 -5.59538e-23 -5.59538e-23 5.5503e-23 5.5503e-23 -5.4411e-23 -5.4411e-23 5.27254e-23 5.27254e-23 -5.05183e-23 -5.05183e-23 4.78778e-23 4.78778e-23 -4.48998e-23 -4.48998e-23 4.16815e-23 4.16815e-23 -3.83162e-23 -3.83162e-23 3.48889e-23 3.48889e-23 -3.14739e-23 -3.14739e-23 2.81332e-23 2.81332e-23 -2.49154e-23 -2.49154e-23 2.18567e-23 2.18567e-23 -1.89812e-23 -1.89812e-23 1.63022e-23 1.63022e-23 -1.38244e-23 -1.38244e-23 1.15452e-23 1.15452e-23 -9.45675e-24 -9.45675e-24 7.54757e-24 7.54757e-24 -5.80416e-24 -5.80416e-24 4.21229e-24 4.21229e-24 -2.75815e-24 -2.75815e-24 1.42905e-24 1.42905e-24 -2.14033e-25 -2.14033e-25 -8.95845e-25 -8.95845e-25 1.90745e-24 1.90745e-24 -2.82567e-24 -2.82567e-24 3.65363e-24 3.65363e-24 -4.39301e-24 -4.39301e-24 5.04449e-24 5.04449e-24 -5.60812e-24 -5.60812e-24 6.08371e-24 6.08371e-24 -6.47123e-24 -6.47123e-24 6.77113e-24 6.77113e-24 -6.98456e-24 -6.98456e-24 7.11357e-24 7.11357e-24 -7.16122e-24 -7.16122e-24 7.13162e-24 7.13162e-24 -7.02986e-24 -7.02986e-24 6.86197e-24 6.86197e-24 -6.6348e-24 -6.6348e-24 6.35578e-24 6.35578e-24 -6.0328e-24 -6.0328e-24 5.67402e-24 5.67402e-24 -5.2876e-24 -5.2876e-24 4.88158e-24 4.88158e-24 -4.46368e-24 -4.46368e-24 4.04114e-24 4.04114e-24 -3.62063e-24 -3.62063e-24 3.20809e-24 3.20809e-24 -2.80872e-24 -2.80872e-24 2.42693e-24 2.42693e-24 -2.0663e-24 -2.0663e-24 1.72959e-24 1.72959e-24 -1.41882e-24 -1.41882e-24 1.13526e-24 1.13526e-24 -8.79535e-25 -8.79535e-25 6.51667e-25 6.51667e-25 -4.51172e-25 -4.51172e-25 2.77133e-25 2.77133e-25 -1.28282e-25 -1.28282e-25 3.07892e-27 3.07892e-27 1.00217e-25 1.00217e-25 -1.83478e-25 -1.83478e-25 2.48648e-25 2.48648e-25 -2.97692e-25 -2.97692e-25 3.32549e-25 3.32549e-25 -3.55098e-25 -3.55098e-25 3.67127e-25 3.67127e-25 -3.70315e-25 -3.70315e-25 3.66213e-25 3.66213e-25 -3.56235e-25 -3.56235e-25 3.41655e-25 3.41655e-25 -3.23608e-25 -3.23608e-25 3.03086e-25 3.03086e-25 -2.8095e-25 -2.8095e-25 2.57935e-25 2.57935e-25 -2.34657e-25 -2.34657e-25 2.11622e-25 2.11622e-25 -1.89241e-25 -1.89241e-25 1.67831e-25 1.67831e-25 -1.47634e-25 -1.47634e-25 1.28819e-25 1.28819e-25 -1.11497e-25 -1.11497e-25 9.57261e-26 9.57261e-26 -8.15193e-26 -8.15193e-26 6.88544e-26 6.88544e-26 -5.76791e-26 -5.76791e-26 4.79178e-26 4.79178e-26 -3.94772e-26 -3.94772e-26 3.22514e-26 3.22514e-26 -2.61266e-26 -2.61266e-26 2.09852e-26 2.09852e-26 -1.67089e-26 -1.67089e-26 1.31822e-26 1.31822e-26 -1.02945e-26 -1.02945e-26 7.94235e-27 7.94235e-27 -6.03094e-27 -6.03094e-27 4.47513e-27 4.47513e-27 -3.20016e-27 -3.20016e-27 2.14205e-27 2.14205e-27 -1.24747e-27 -1.24747e-27 4.73456e-28 4.73456e-28 2.13214e-28 2.13214e-28 -8.3681e-28 -8.3681e-28 1.41364e-27 1.41364e-27 -1.95314e-27 -1.95314e-27 2.45904e-27 2.45904e-27 -2.93054e-27 -2.93054e-27 3.36352e-27 3.36352e-27 -3.75159e-27 -3.75159e-27 4.0872e-27 4.0872e-27 -4.36252e-27 -4.36252e-27 4.57025e-27 4.57025e-27 -4.70426e-27 -4.70426e-27 4.7601e-27 4.7601e-27 -4.73535e-27 -4.73535e-27 4.62983e-27 4.62983e-27 -4.44564e-27 -4.44564e-27 4.18714e-27 4.18714e-27 -3.86077e-27 -3.86077e-27 3.4748e-27 3.4748e-27 -3.03904e-27 -3.03904e-27 2.5644e-27 2.5644e-27 -2.06259e-27 -2.06259e-27 1.54566e-27 1.54566e-27 -1.02559e-27 -1.02559e-27 5.13993e-28 5.13993e-28 -2.17e-29 -2.17e-29 -4.41477e-28 -4.41477e-28 8.67e-28 8.67e-28 -1.24778e-27 -1.24778e-27 1.57828e-27 1.57828e-27 -1.85459e-27 -1.85459e-27 2.07444e-27 2.07444e-27 