# vtk DataFile Version 3.0
#This file was generated by the deal.II library on 2020/8/11 at 22:16:52
ASCII
DATASET UNSTRUCTURED_GRID

POINTS 4096 double
0.5 0 0
0.743896 0 0
0.743896 0 0
0.987793 0 0
0.987793 0 0
1.23169 0 0
1.23169 0 0
1.47559 0 0
1.47559 0 0
1.71948 0 0
1.71948 0 0
1.96338 0 0
1.96338 0 0
2.20728 0 0
2.20728 0 0
2.45117 0 0
2.45117 0 0
2.69507 0 0
2.69507 0 0
2.93896 0 0
2.93896 0 0
3.18286 0 0
3.18286 0 0
3.42676 0 0
3.42676 0 0
3.67065 0 0
3.67065 0 0
3.91455 0 0
3.91455 0 0
4.15845 0 0
4.15845 0 0
4.40234 0 0
4.40234 0 0
4.64624 0 0
4.64624 0 0
4.89014 0 0
4.89014 0 0
5.13403 0 0
5.13403 0 0
5.37793 0 0
5.37793 0 0
5.62183 0 0
5.62183 0 0
5.86572 0 0
5.86572 0 0
6.10962 0 0
6.10962 0 0
6.35352 0 0
6.35352 0 0
6.59741 0 0
6.59741 0 0
6.84131 0 0
6.84131 0 0
7.08521 0 0
7.08521 0 0
7.3291 0 0
7.3291 0 0
7.573 0 0
7.573 0 0
7.81689 0 0
7.81689 0 0
8.06079 0 0
8.06079 0 0
8.30469 0 0
8.30469 0 0
8.54858 0 0
8.54858 0 0
8.79248 0 0
8.79248 0 0
9.03638 0 0
9.03638 0 0
9.28027 0 0
9.28027 0 0
9.52417 0 0
9.52417 0 0
9.76807 0 0
9.76807 0 0
10.012 0 0
10.012 0 0
10.2559 0 0
10.2559 0 0
10.4998 0 0
10.4998 0 0
10.7437 0 0
10.7437 0 0
10.9875 0 0
10.9875 0 0
11.2314 0 0
11.2314 0 0
11.4753 0 0
11.4753 0 0
11.7192 0 0
11.7192 0 0
11.9631 0 0
11.9631 0 0
12.207 0 0
12.207 0 0
12.4509 0 0
12.4509 0 0
12.6948 0 0
12.6948 0 0
12.9387 0 0
12.9387 0 0
13.1826 0 0
13.1826 0 0
13.4265 0 0
13.4265 0 0
13.6704 0 0
13.6704 0 0
13.9143 0 0
13.9143 0 0
14.1582 0 0
14.1582 0 0
14.4021 0 0
14.4021 0 0
14.646 0 0
14.646 0 0
14.8899 0 0
14.8899 0 0
15.1338 0 0
15.1338 0 0
15.3777 0 0
15.3777 0 0
15.6216 0 0
15.6216 0 0
15.8655 0 0
15.8655 0 0
16.1094 0 0
16.1094 0 0
16.3533 0 0
16.3533 0 0
16.5972 0 0
16.5972 0 0
16.8411 0 0
16.8411 0 0
17.085 0 0
17.085 0 0
17.3289 0 0
17.3289 0 0
17.5728 0 0
17.5728 0 0
17.8167 0 0
17.8167 0 0
18.0605 0 0
18.0605 0 0
18.3044 0 0
18.3044 0 0
18.5483 0 0
18.5483 0 0
18.7922 0 0
18.7922 0 0
19.0361 0 0
19.0361 0 0
19.28 0 0
19.28 0 0
19.5239 0 0
19.5239 0 0
19.7678 0 0
19.7678 0 0
20.0117 0 0
20.0117 0 0
20.2556 0 0
20.2556 0 0
20.4995 0 0
20.4995 0 0
20.7434 0 0
20.7434 0 0
20.9873 0 0
20.9873 0 0
21.2312 0 0
21.2312 0 0
21.4751 0 0
21.4751 0 0
21.719 0 0
21.719 0 0
21.9629 0 0
21.9629 0 0
22.2068 0 0
22.2068 0 0
22.4507 0 0
22.4507 0 0
22.6946 0 0
22.6946 0 0
22.9385 0 0
22.9385 0 0
23.1824 0 0
23.1824 0 0
23.4263 0 0
23.4263 0 0
23.6702 0 0
23.6702 0 0
23.9141 0 0
23.9141 0 0
24.158 0 0
24.158 0 0
24.4019 0 0
24.4019 0 0
24.6458 0 0
24.6458 0 0
24.8896 0 0
24.8896 0 0
25.1335 0 0
25.1335 0 0
25.3774 0 0
25.3774 0 0
25.6213 0 0
25.6213 0 0
25.8652 0 0
25.8652 0 0
26.1091 0 0
26.1091 0 0
26.353 0 0
26.353 0 0
26.5969 0 0
26.5969 0 0
26.8408 0 0
26.8408 0 0
27.0847 0 0
27.0847 0 0
27.3286 0 0
27.3286 0 0
27.5725 0 0
27.5725 0 0
27.8164 0 0
27.8164 0 0
28.0603 0 0
28.0603 0 0
28.3042 0 0
28.3042 0 0
28.5481 0 0
28.5481 0 0
28.792 0 0
28.792 0 0
29.0359 0 0
29.0359 0 0
29.2798 0 0
29.2798 0 0
29.5237 0 0
29.5237 0 0
29.7676 0 0
29.7676 0 0
30.0115 0 0
30.0115 0 0
30.2554 0 0
30.2554 0 0
30.4993 0 0
30.4993 0 0
30.7432 0 0
30.7432 0 0
30.9871 0 0
30.9871 0 0
31.231 0 0
31.231 0 0
31.4749 0 0
31.4749 0 0
31.7188 0 0
31.7188 0 0
31.9626 0 0
31.9626 0 0
32.2065 0 0
32.2065 0 0
32.4504 0 0
32.4504 0 0
32.6943 0 0
32.6943 0 0
32.9382 0 0
32.9382 0 0
33.1821 0 0
33.1821 0 0
33.426 0 0
33.426 0 0
33.6699 0 0
33.6699 0 0
33.9138 0 0
33.9138 0 0
34.1577 0 0
34.1577 0 0
34.4016 0 0
34.4016 0 0
34.6455 0 0
34.6455 0 0
34.8894 0 0
34.8894 0 0
35.1333 0 0
35.1333 0 0
35.3772 0 0
35.3772 0 0
35.6211 0 0
35.6211 0 0
35.865 0 0
35.865 0 0
36.1089 0 0
36.1089 0 0
36.3528 0 0
36.3528 0 0
36.5967 0 0
36.5967 0 0
36.8406 0 0
36.8406 0 0
37.0845 0 0
37.0845 0 0
37.3284 0 0
37.3284 0 0
37.5723 0 0
37.5723 0 0
37.8162 0 0
37.8162 0 0
38.0601 0 0
38.0601 0 0
38.304 0 0
38.304 0 0
38.5479 0 0
38.5479 0 0
38.7917 0 0
38.7917 0 0
39.0356 0 0
39.0356 0 0
39.2795 0 0
39.2795 0 0
39.5234 0 0
39.5234 0 0
39.7673 0 0
39.7673 0 0
40.0112 0 0
40.0112 0 0
40.2551 0 0
40.2551 0 0
40.499 0 0
40.499 0 0
40.7429 0 0
40.7429 0 0
40.9868 0 0
40.9868 0 0
41.2307 0 0
41.2307 0 0
41.4746 0 0
41.4746 0 0
41.7185 0 0
41.7185 0 0
41.9624 0 0
41.9624 0 0
42.2063 0 0
42.2063 0 0
42.4502 0 0
42.4502 0 0
42.6941 0 0
42.6941 0 0
42.938 0 0
42.938 0 0
43.1819 0 0
43.1819 0 0
43.4258 0 0
43.4258 0 0
43.6697 0 0
43.6697 0 0
43.9136 0 0
43.9136 0 0
44.1575 0 0
44.1575 0 0
44.4014 0 0
44.4014 0 0
44.6453 0 0
44.6453 0 0
44.8892 0 0
44.8892 0 0
45.1331 0 0
45.1331 0 0
45.377 0 0
45.377 0 0
45.6208 0 0
45.6208 0 0
45.8647 0 0
45.8647 0 0
46.1086 0 0
46.1086 0 0
46.3525 0 0
46.3525 0 0
46.5964 0 0
46.5964 0 0
46.8403 0 0
46.8403 0 0
47.0842 0 0
47.0842 0 0
47.3281 0 0
47.3281 0 0
47.572 0 0
47.572 0 0
47.8159 0 0
47.8159 0 0
48.0598 0 0
48.0598 0 0
48.3037 0 0
48.3037 0 0
48.5476 0 0
48.5476 0 0
48.7915 0 0
48.7915 0 0
49.0354 0 0
49.0354 0 0
49.2793 0 0
49.2793 0 0
49.5232 0 0
49.5232 0 0
49.7671 0 0
49.7671 0 0
50.011 0 0
50.011 0 0
50.2549 0 0
50.2549 0 0
50.4988 0 0
50.4988 0 0
50.7427 0 0
50.7427 0 0
50.9866 0 0
50.9866 0 0
51.2305 0 0
51.2305 0 0
51.4744 0 0
51.4744 0 0
51.7183 0 0
51.7183 0 0
51.9622 0 0
51.9622 0 0
52.2061 0 0
52.2061 0 0
52.45 0 0
52.45 0 0
52.6938 0 0
52.6938 0 0
52.9377 0 0
52.9377 0 0
53.1816 0 0
53.1816 0 0
53.4255 0 0
53.4255 0 0
53.6694 0 0
53.6694 0 0
53.9133 0 0
53.9133 0 0
54.1572 0 0
54.1572 0 0
54.4011 0 0
54.4011 0 0
54.645 0 0
54.645 0 0
54.8889 0 0
54.8889 0 0
55.1328 0 0
55.1328 0 0
55.3767 0 0
55.3767 0 0
55.6206 0 0
55.6206 0 0
55.8645 0 0
55.8645 0 0
56.1084 0 0
56.1084 0 0
56.3523 0 0
56.3523 0 0
56.5962 0 0
56.5962 0 0
56.8401 0 0
56.8401 0 0
57.084 0 0
57.084 0 0
57.3279 0 0
57.3279 0 0
57.5718 0 0
57.5718 0 0
57.8157 0 0
57.8157 0 0
58.0596 0 0
58.0596 0 0
58.3035 0 0
58.3035 0 0
58.5474 0 0
58.5474 0 0
58.7913 0 0
58.7913 0 0
59.0352 0 0
59.0352 0 0
59.2791 0 0
59.2791 0 0
59.5229 0 0
59.5229 0 0
59.7668 0 0
59.7668 0 0
60.0107 0 0
60.0107 0 0
60.2546 0 0
60.2546 0 0
60.4985 0 0
60.4985 0 0
60.7424 0 0
60.7424 0 0
60.9863 0 0
60.9863 0 0
61.2302 0 0
61.2302 0 0
61.4741 0 0
61.4741 0 0
61.718 0 0
61.718 0 0
61.9619 0 0
61.9619 0 0
62.2058 0 0
62.2058 0 0
62.4497 0 0
62.4497 0 0
62.6936 0 0
62.6936 0 0
62.9375 0 0
62.9375 0 0
63.1814 0 0
63.1814 0 0
63.4253 0 0
63.4253 0 0
63.6692 0 0
63.6692 0 0
63.9131 0 0
63.9131 0 0
64.157 0 0
64.157 0 0
64.4009 0 0
64.4009 0 0
64.6448 0 0
64.6448 0 0
64.8887 0 0
64.8887 0 0
65.1326 0 0
65.1326 0 0
65.3765 0 0
65.3765 0 0
65.6204 0 0
65.6204 0 0
65.8643 0 0
65.8643 0 0
66.1082 0 0
66.1082 0 0
66.3521 0 0
66.3521 0 0
66.5959 0 0
66.5959 0 0
66.8398 0 0
66.8398 0 0
67.0837 0 0
67.0837 0 0
67.3276 0 0
67.3276 0 0
67.5715 0 0
67.5715 0 0
67.8154 0 0
67.8154 0 0
68.0593 0 0
68.0593 0 0
68.3032 0 0
68.3032 0 0
68.5471 0 0
68.5471 0 0
68.791 0 0
68.791 0 0
69.0349 0 0
69.0349 0 0
69.2788 0 0
69.2788 0 0
69.5227 0 0
69.5227 0 0
69.7666 0 0
69.7666 0 0
70.0105 0 0
70.0105 0 0
70.2544 0 0
70.2544 0 0
70.4983 0 0
70.4983 0 0
70.7422 0 0
70.7422 0 0
70.9861 0 0
70.9861 0 0
71.23 0 0
71.23 0 0
71.4739 0 0
71.4739 0 0
71.7178 0 0
71.7178 0 0
71.9617 0 0
71.9617 0 0
72.2056 0 0
72.2056 0 0
72.4495 0 0
72.4495 0 0
72.6934 0 0
72.6934 0 0
72.9373 0 0
72.9373 0 0
73.1812 0 0
73.1812 0 0
73.425 0 0
73.425 0 0
73.6689 0 0
73.6689 0 0
73.9128 0 0
73.9128 0 0
74.1567 0 0
74.1567 0 0
74.4006 0 0
74.4006 0 0
74.6445 0 0
74.6445 0 0
74.8884 0 0
74.8884 0 0
75.1323 0 0
75.1323 0 0
75.3762 0 0
75.3762 0 0
75.6201 0 0
75.6201 0 0
75.864 0 0
75.864 0 0
76.1079 0 0
76.1079 0 0
76.3518 0 0
76.3518 0 0
76.5957 0 0
76.5957 0 0
76.8396 0 0
76.8396 0 0
77.0835 0 0
77.0835 0 0
77.3274 0 0
77.3274 0 0
77.5713 0 0
77.5713 0 0
77.8152 0 0
77.8152 0 0
78.0591 0 0
78.0591 0 0
78.303 0 0
78.303 0 0
78.5469 0 0
78.5469 0 0
78.7908 0 0
78.7908 0 0
79.0347 0 0
79.0347 0 0
79.2786 0 0
79.2786 0 0
79.5225 0 0
79.5225 0 0
79.7664 0 0
79.7664 0 0
80.0103 0 0
80.0103 0 0
80.2542 0 0
80.2542 0 0
80.498 0 0
80.498 0 0
80.7419 0 0
80.7419 0 0
80.9858 0 0
80.9858 0 0
81.2297 0 0
81.2297 0 0
81.4736 0 0
81.4736 0 0
81.7175 0 0
81.7175 0 0
81.9614 0 0
81.9614 0 0
82.2053 0 0
82.2053 0 0
82.4492 0 0
82.4492 0 0
82.6931 0 0
82.6931 0 0
82.937 0 0
82.937 0 0
83.1809 0 0
83.1809 0 0
83.4248 0 0
83.4248 0 0
83.6687 0 0
83.6687 0 0
83.9126 0 0
83.9126 0 0
84.1565 0 0
84.1565 0 0
84.4004 0 0
84.4004 0 0
84.6443 0 0
84.6443 0 0
84.8882 0 0
84.8882 0 0
85.1321 0 0
85.1321 0 0
85.376 0 0
85.376 0 0
85.6199 0 0
85.6199 0 0
85.8638 0 0
85.8638 0 0
86.1077 0 0
86.1077 0 0
86.3516 0 0
86.3516 0 0
86.5955 0 0
86.5955 0 0
86.8394 0 0
86.8394 0 0
87.0833 0 0
87.0833 0 0
87.3271 0 0
87.3271 0 0
87.571 0 0
87.571 0 0
87.8149 0 0
87.8149 0 0
88.0588 0 0
88.0588 0 0
88.3027 0 0
88.3027 0 0
88.5466 0 0
88.5466 0 0
88.7905 0 0
88.7905 0 0
89.0344 0 0
89.0344 0 0
89.2783 0 0
89.2783 0 0
89.5222 0 0
89.5222 0 0
89.7661 0 0
89.7661 0 0
90.01 0 0
90.01 0 0
90.2539 0 0
90.2539 0 0
90.4978 0 0
90.4978 0 0
90.7417 0 0
90.7417 0 0
90.9856 0 0
90.9856 0 0
91.2295 0 0
91.2295 0 0
91.4734 0 0
91.4734 0 0
91.7173 0 0
91.7173 0 0
91.9612 0 0
91.9612 0 0
92.2051 0 0
92.2051 0 0
92.449 0 0
92.449 0 0
92.6929 0 0
92.6929 0 0
92.9368 0 0
92.9368 0 0
93.1807 0 0
93.1807 0 0
93.4246 0 0
93.4246 0 0
93.6685 0 0
93.6685 0 0
93.9124 0 0
93.9124 0 0
94.1562 0 0
94.1562 0 0
94.4001 0 0
94.4001 0 0
94.644 0 0
94.644 0 0
94.8879 0 0
94.8879 0 0
95.1318 0 0
95.1318 0 0
95.3757 0 0
95.3757 0 0
95.6196 0 0
95.6196 0 0
95.8635 0 0
95.8635 0 0
96.1074 0 0
96.1074 0 0
96.3513 0 0
96.3513 0 0
96.5952 0 0
96.5952 0 0
96.8391 0 0
96.8391 0 0
97.083 0 0
97.083 0 0
97.3269 0 0
97.3269 0 0
97.5708 0 0
97.5708 0 0
97.8147 0 0
97.8147 0 0
98.0586 0 0
98.0586 0 0
98.3025 0 0
98.3025 0 0
98.5464 0 0
98.5464 0 0
98.7903 0 0
98.7903 0 0
99.0342 0 0
99.0342 0 0
99.2781 0 0
99.2781 0 0
99.522 0 0
99.522 0 0
99.7659 0 0
99.7659 0 0
100.01 0 0
100.01 0 0
100.254 0 0
100.254 0 0
100.498 0 0
100.498 0 0
100.741 0 0
100.741 0 0
100.985 0 0
100.985 0 0
101.229 0 0
101.229 0 0
101.473 0 0
[...]
POINT_DATA 4096
SCALARS solution_0 double 1
LOOKUP_TABLE default
0.00439309 -10.2748 -10.2748 -3.35836 -3.35836 -1.86553 -1.86553 -1.10432 -1.10432 -0.679754 -0.679754 -0.348373 -0.348373 -0.161076 -0.161076 0.0240575 0.0240575 0.127734 0.127734 0.179266 0.179266 0.195891 0.195891 0.147748 0.147748 0.0577363 0.0577363 -0.0563345 -0.0563345 -0.0822353 -0.0822353 -0.0483373 -0.0483373 0.0872539 0.0872539 0.177632 0.177632 0.230902 0.230902 0.266475 0.266475 0.421701 0.421701 0.776236 0.776236 1.24133 1.24133 1.76415 1.76415 2.42474 2.42474 3.33237 3.33237 4.40153 4.40153 5.47438 5.47438 6.46448 6.46448 7.35136 7.35136 7.99727 7.99727 8.23245 8.23245 7.98807 7.98807 7.42327 7.42327 6.53233 6.53233 5.38801 5.38801 4.18438 4.18438 3.09996 3.09996 2.14129 2.14129 1.36342 1.36342 0.827143 0.827143 0.480113 0.480113 0.243968 0.243968 0.10719 0.10719 0.0639314 0.0639314 0.0243252 0.0243252 -4.83127e-05 -4.83127e-05 0.00507553 0.00507553 0.00926538 0.00926538 -0.010165 -0.010165 0.00334178 0.00334178 0.00413172 0.00413172 -0.00386795 -0.00386795 -0.0025026 -0.0025026 0.00742366 0.00742366 -0.00593253 -0.00593253 0.000149363 0.000149363 0.00404729 0.00404729 -0.00328302 -0.00328302 -0.000623866 -0.000623866 0.00329864 0.00329864 -0.00225596 -0.00225596 -0.00121356 -0.00121356 0.00385418 0.00385418 -0.00361467 -0.00361467 0.00118104 0.00118104 0.00108667 0.00108667 -0.00139982 -0.00139982 -0.000111274 -0.000111274 0.00185521 0.00185521 -0.0023144 -0.0023144 0.0012344 0.0012344 0.000388418 0.000388418 -0.00127799 -0.00127799 0.000890915 0.000890915 0.000291804 0.000291804 -0.00127354 -0.00127354 0.00133698 0.00133698 -0.000509356 -0.000509356 -0.000565925 -0.000565925 0.0011556 0.0011556 -0.000934976 -0.000934976 0.000135834 0.000135834 0.00068626 0.00068626 -0.00104557 -0.00104557 0.00080517 0.00080517 -0.000194053 -0.000194053 -0.000394328 -0.000394328 0.000657403 0.000657403 -0.000532797 -0.000532797 0.000179637 0.000179637 0.000159184 0.000159184 -0.000308705 -0.000308705 0.000239939 0.000239939 -4.92436e-05 -4.92436e-05 -0.000125087 -0.000125087 0.000187626 0.000187626 -0.00012566 -0.00012566 -5.68233e-06 -5.68233e-06 0.000130459 0.000130459 -0.000197059 -0.000197059 0.000197651 0.000197651 -0.000158538 -0.000158538 0.000114898 0.000114898 -8.83138e-05 -8.83138e-05 7.89882e-05 7.89882e-05 -7.31131e-05 -7.31131e-05 5.70641e-05 5.70641e-05 -2.81584e-05 -2.81584e-05 -3.96528e-06 -3.96528e-06 2.45374e-05 2.45374e-05 -2.3711e-05 -2.3711e-05 3.03057e-06 3.03057e-06 2.51366e-05 2.51366e-05 -4.42649e-05 -4.42649e-05 4.2287e-05 4.2287e-05 -1.74831e-05 -1.74831e-05 -2.10808e-05 -2.10808e-05 5.82509e-05 5.82509e-05 -7.98601e-05 -7.98601e-05 7.86616e-05 7.86616e-05 -5.66131e-05 -5.66131e-05 2.30036e-05 2.30036e-05 1.01681e-05 1.01681e-05 -3.31894e-05 -3.31894e-05 4.18645e-05 4.18645e-05 -3.79594e-05 -3.79594e-05 2.71958e-05 2.71958e-05 -1.6088e-05 -1.6088e-05 9.14872e-06 9.14872e-06 -7.5406e-06 -7.5406e-06 9.43452e-06 9.43452e-06 -1.15746e-05 -1.15746e-05 1.11446e-05 1.11446e-05 -7.08152e-06 -7.08152e-06 3.748e-07 3.748e-07 6.59942e-06 6.59942e-06 -1.12676e-05 -1.12676e-05 1.19898e-05 1.19898e-05 -8.67234e-06 -8.67234e-06 2.68641e-06 2.68641e-06 3.77735e-06 3.77735e-06 -8.58833e-06 -8.58833e-06 1.0421e-05 1.0421e-05 -9.10683e-06 -9.10683e-06 5.52426e-06 5.52426e-06 -1.13765e-06 -1.13765e-06 -2.59248e-06 -2.59248e-06 4.69879e-06 4.69879e-06 -4.94184e-06 -4.94184e-06 3.75351e-06 3.75351e-06 -1.96099e-06 -1.96099e-06 4.26566e-07 4.26566e-07 2.5743e-07 2.5743e-07 7.58042e-08 7.58042e-08 -1.18677e-06 -1.18677e-06 2.58457e-06 2.58457e-06 -3.73956e-06 -3.73956e-06 4.27118e-06 4.27118e-06 -4.05233e-06 -4.05233e-06 3.21076e-06 3.21076e-06 -2.04599e-06 -2.04599e-06 9.0482e-07 9.0482e-07 -6.36928e-08 -6.36928e-08 -3.4479e-07 -3.4479e-07 3.45851e-07 3.45851e-07 -8.35397e-08 -8.35397e-08 -2.48744e-07 -2.48744e-07 4.80258e-07 4.80258e-07 -5.1401e-07 -5.1401e-07 3.44614e-07 3.44614e-07 -4.34155e-08 -4.34155e-08 -2.78377e-07 -2.78377e-07 5.12941e-07 5.12941e-07 -5.90778e-07 -5.90778e-07 4.97918e-07 4.97918e-07 -2.73153e-07 -2.73153e-07 -1.04417e-08 -1.04417e-08 2.71474e-07 2.71474e-07 -4.44701e-07 -4.44701e-07 4.97056e-07 4.97056e-07 -4.32029e-07 -4.32029e-07 2.83142e-07 2.83142e-07 -1.00233e-07 -1.00233e-07 -6.63587e-08 -6.63587e-08 1.78998e-07 1.78998e-07 -2.20227e-07 -2.20227e-07 1.93564e-07 1.93564e-07 -1.1868e-07 -1.1868e-07 2.33278e-08 2.33278e-08 6.5226e-08 6.5226e-08 -1.26921e-07 -1.26921e-07 1.52409e-07 1.52409e-07 -1.43111e-07 -1.43111e-07 1.08541e-07 1.08541e-07 -6.21822e-08 -6.21822e-08 1.72763e-08 1.72763e-08 1.63756e-08 1.63756e-08 -3.40122e-08 -3.40122e-08 3.5878e-08 3.5878e-08 -2.59433e-08 -2.59433e-08 1.00018e-08 1.00018e-08 6.22176e-09 6.22176e-09 -1.84715e-08 -1.84715e-08 2.46325e-08 2.46325e-08 -2.46832e-08 -2.46832e-08 2.01232e-08 2.01232e-08 -1.31597e-08 -1.31597e-08 5.92735e-09 5.92735e-09 5.89639e-11 5.89639e-11 -4.13342e-09 -4.13342e-09 6.41028e-09 6.41028e-09 -7.51239e-09 -7.51239e-09 8.22379e-09 8.22379e-09 -9.1829e-09 -9.1829e-09 1.06935e-08 1.06935e-08 -1.26796e-08 -1.26796e-08 1.47661e-08 1.47661e-08 -1.64343e-08 -1.64343e-08 1.71957e-08 1.71957e-08 -1.67312e-08 -1.67312e-08 1.49666e-08 1.49666e-08 -1.2075e-08 -1.2075e-08 8.42057e-09 8.42057e-09 -4.46678e-09 -4.46678e-09 6.78371e-10 6.78371e-10 2.56022e-09 2.56022e-09 -4.99542e-09 -4.99542e-09 6.52054e-09 6.52054e-09 -7.16213e-09 -7.16213e-09 7.04708e-09 7.04708e-09 -6.36201e-09 -6.36201e-09 5.31455e-09 5.31455e-09 -4.103e-09 -4.103e-09 2.89628e-09 2.89628e-09 -1.82372e-09 -1.82372e-09 9.71855e-10 9.71855e-10 -3.85812e-10 -3.85812e-10 7.30053e-11 7.30053e-11 -8.31284e-12 -8.31284e-12 1.40608e-10 1.40608e-10 -4.00933e-10 -4.00933e-10 7.12358e-10 7.12358e-10 -1.00092e-09 -1.00092e-09 1.20636e-09 1.20636e-09 -1.29085e-09 -1.29085e-09 1.24404e-09 1.24404e-09 -1.08316e-09 -1.08316e-09 8.48097e-10 8.48097e-10 -5.92101e-10 -5.92101e-10 3.70237e-10 3.70237e-10 -2.27756e-10 -2.27756e-10 1.90902e-10 1.90902e-10 -2.61968e-10 -2.61968e-10 4.19529e-10 4.19529e-10 -6.23605e-10 -6.23605e-10 8.24523e-10 8.24523e-10 -9.73465e-10 -9.73465e-10 1.03247e-09 1.03247e-09 -9.81841e-10 -9.81841e-10 8.23642e-10 8.23642e-10 -5.80674e-10 -5.80674e-10 2.91477e-10 2.91477e-10 -2.51766e-12 -2.51766e-12 -2.40745e-10 -2.40745e-10 4.02113e-10 4.02113e-10 -4.60693e-10 -4.60693e-10 4.1376e-10 4.1376e-10 -2.76117e-10 -2.76117e-10 7.6363e-11 7.6363e-11 1.49011e-10 1.49011e-10 -3.62436e-10 -3.62436e-10 5.31679e-10 5.31679e-10 -6.34744e-10 -6.34744e-10 6.62546e-10 6.62546e-10 -6.19086e-10 -6.19086e-10 5.19378e-10 5.19378e-10 -3.85704e-10 -3.85704e-10 2.43057e-10 2.43057e-10 -1.14633e-10 -1.14633e-10 1.8164e-11 1.8164e-11 3.63832e-11 3.63832e-11 -4.75073e-11 -4.75073e-11 2.13414e-11 2.13414e-11 3.0374e-11 3.0374e-11 -9.30193e-11 -9.30193e-11 1.5197e-10 1.5197e-10 -1.95107e-10 -1.95107e-10 2.14581e-10 2.14581e-10 -2.07632e-10 -2.07632e-10 1.76432e-10 1.76432e-10 -1.27126e-10 -1.27126e-10 6.83156e-11 6.83156e-11 -9.32593e-12 -9.32593e-12 -4.14313e-11 -4.14313e-11 7.77367e-11 7.77367e-11 -9.63193e-11 -9.63193e-11 9.70337e-11 9.70337e-11 -8.25044e-11 -8.25044e-11 5.73678e-11 5.73678e-11 -2.7286e-11 -2.7286e-11 -2.07546e-12 -2.07546e-12 2.59384e-11 2.59384e-11 -4.10456e-11 -4.10456e-11 4.59718e-11 4.59718e-11 -4.11062e-11 -4.11062e-11 2.83544e-11 2.83544e-11 -1.06449e-11 -1.06449e-11 -8.65597e-12 -8.65597e-12 2.63179e-11 2.63179e-11 -3.97228e-11 -3.97228e-11 4.71834e-11 4.71834e-11 -4.80791e-11 -4.80791e-11 4.28145e-11 4.28145e-11 -3.26314e-11 -3.26314e-11 1.93245e-11 1.93245e-11 -4.91492e-12 -4.91492e-12 -8.66197e-12 -8.66197e-12 1.98137e-11 1.98137e-11 -2.74625e-11 -2.74625e-11 3.112e-11 3.112e-11 -3.08703e-11 -3.08703e-11 2.72769e-11 2.72769e-11 -2.12384e-11 -2.12384e-11 1.38221e-11 1.38221e-11 -6.10145e-12 -6.10145e-12 -9.81635e-13 -9.81635e-13 6.71377e-12 6.71377e-12 -1.06615e-11 -1.06615e-11 1.26775e-11 1.26775e-11 -1.2869e-11 -1.2869e-11 1.15392e-11 1.15392e-11 -9.11524e-12 -9.11524e-12 6.07291e-12 6.07291e-12 -2.87087e-12 -2.87087e-12 -1.00784e-13 -1.00784e-13 2.55292e-12 2.55292e-12 -4.31076e-12 -4.31076e-12 5.3104e-12 5.3104e-12 -5.58268e-12 -5.58268e-12 5.22915e-12 5.22915e-12 -4.39504e-12 -4.39504e-12 3.24339e-12 3.24339e-12 -1.9333e-12 -1.9333e-12 6.04071e-13 6.04071e-13 6.34257e-13 6.34257e-13 -1.70448e-12 -1.70448e-12 2.56112e-12 2.56112e-12 -3.18605e-12 -3.18605e-12 3.58254e-12 3.58254e-12 -3.76886e-12 -3.76886e-12 3.77255e-12 3.77255e-12 -3.62581e-12 -3.62581e-12 3.36223e-12 3.36223e-12 -3.01467e-12 -3.01467e-12 2.61416e-12 2.61416e-12 -2.18919e-12 -2.18919e-12 1.76537e-12 1.76537e-12 -1.36497e-12 -1.36497e-12 1.00644e-12 1.00644e-12 -7.03805e-13 -7.03805e-13 4.66056e-13 4.66056e-13 -2.96798e-13 -2.96798e-13 1.94156e-13 1.94156e-13 -1.51145e-13 -1.51145e-13 1.5649e-13 1.5649e-13 -1.95871e-13 -1.95871e-13 2.5346e-13 2.5346e-13 -3.13572e-13 -3.13572e-13 3.62254e-13 3.62254e-13 -3.8861e-13 -3.8861e-13 3.85711e-13 3.85711e-13 -3.51018e-13 -3.51018e-13 2.86279e-13 2.86279e-13 -1.96949e-13 -1.96949e-13 9.12405e-14 9.12405e-14 2.10587e-14 2.10587e-14 -1.29843e-13 -1.29843e-13 2.25863e-13 2.25863e-13 -3.0169e-13 -3.0169e-13 3.52384e-13 3.52384e-13 -3.75801e-13 -3.75801e-13 3.72568e-13 3.72568e-13 -3.45743e-13 -3.45743e-13 3.0025e-13 3.0025e-13 -2.42169e-13 -2.42169e-13 1.7799e-13 1.7799e-13 -1.13914e-13 -1.13914e-13 5.5267e-14 5.5267e-14 -6.09573e-15 -6.09573e-15 -3.10538e-14 -3.10538e-14 5.5165e-14 5.5165e-14 -6.66137e-14 -6.66137e-14 6.69073e-14 6.69073e-14 -5.83447e-14 -5.83447e-14 4.36493e-14 4.36493e-14 -2.56186e-14 -2.56186e-14 6.82666e-15 6.82666e-15 1.05968e-14 1.05968e-14 -2.50992e-14 -2.50992e-14 3.5751e-14 3.5751e-14 -4.22157e-14 -4.22157e-14 4.46606e-14 4.46606e-14 -4.36305e-14 -4.36305e-14 3.99058e-14 3.99058e-14 -3.43643e-14 -3.43643e-14 2.78617e-14 2.78617e-14 -2.11419e-14 -2.11419e-14 1.47803e-14 1.47803e-14 -9.16117e-15 -9.16117e-15 4.48355e-15 4.48355e-15 -7.88674e-16 -7.88674e-16 -1.99884e-15 -1.99884e-15 4.02497e-15 4.02497e-15 -5.4626e-15 -5.4626e-15 6.47556e-15 6.47556e-15 -7.19371e-15 -7.19371e-15 7.70029e-15 7.70029e-15 -8.03054e-15 -8.03054e-15 8.17955e-15 8.17955e-15 -8.11608e-15 -8.11608e-15 7.79908e-15 7.79908e-15 -7.19369e-15 -7.19369e-15 6.28415e-15 6.28415e-15 -5.08216e-15 -5.08216e-15 3.62963e-15 3.62963e-15 -1.99641e-15 -1.99641e-15 2.73507e-16 2.73507e-16 1.43643e-15 1.43643e-15 -3.0301e-15 -3.0301e-15 4.41412e-15 4.41412e-15 -5.51398e-15 -5.51398e-15 6.28036e-15 6.28036e-15 -6.69222e-15 -6.69222e-15 6.75668e-15 6.75668e-15 -6.50599e-15 -6.50599e-15 5.99221e-15 5.99221e-15 -5.28047e-15 -5.28047e-15 4.44178e-15 4.44178e-15 -3.54608e-15 -3.54608e-15 2.65632e-15 2.65632e-15 -1.82413e-15 -1.82413e-15 1.08711e-15 1.08711e-15 -4.68086e-16 -4.68086e-16 -2.42468e-17 -2.42468e-17 3.93238e-16 3.93238e-16 -6.51446e-16 -6.51446e-16 8.17375e-16 8.17375e-16 -9.12229e-16 -9.12229e-16 9.57049e-16 9.57049e-16 -9.70458e-16 -9.70458e-16 9.67175e-16 9.67175e-16 -9.57302e-16 -9.57302e-16 9.4634e-16 9.4634e-16 -9.35773e-16 -9.35773e-16 9.24061e-16 9.24061e-16 -9.07818e-16 -9.07818e-16 8.83015e-16 8.83015e-16 -8.46027e-16 -8.46027e-16 7.94441e-16 7.94441e-16 -7.27528e-16 -7.27528e-16 6.46403e-16 6.46403e-16 -5.53881e-16 -5.53881e-16 4.54092e-16 4.54092e-16 -3.51958e-16 -3.51958e-16 2.52595e-16 2.52595e-16 -1.60742e-16 -1.60742e-16 8.02855e-17 8.02855e-17 -1.39149e-17 -1.39149e-17 -3.70467e-17 -3.70467e-17 7.26487e-17 7.26487e-17 -9.41673e-17 -9.41673e-17 1.03844e-16 1.03844e-16 -1.04549e-16 -1.04549e-16 9.94168e-17 9.94168e-17 -9.14994e-17 -9.14994e-17 8.34666e-17 8.34666e-17 -7.73882e-17 -7.73882e-17 7.46056e-17 7.46056e-17 -7.5698e-17 -7.5698e-17 8.05347e-17 8.05347e-17 -8.83962e-17 -8.83962e-17 9.81436e-17 9.81436e-17 -1.0841e-16 -1.0841e-16 1.17795e-16 1.17795e-16 -1.25032e-16 -1.25032e-16 1.29128e-16 1.29128e-16 -1.29451e-16 -1.29451e-16 1.25771e-16 1.25771e-16 -1.1825e-16 -1.1825e-16 1.07395e-16 1.07395e-16 -9.39797e-17 -9.39797e-17 7.89447e-17 7.89447e-17 -6.3294e-17 -6.3294e-17 4.79957e-17 4.79957e-17 -3.38972e-17 -3.38972e-17 2.1662e-17 2.1662e-17 -1.17311e-17 -1.17311e-17 4.31021e-18 4.31021e-18 6.19075e-19 6.19075e-19 -3.26864e-18 -3.26864e-18 3.9989e-18 3.9989e-18 -3.2659e-18 -3.2659e-18 1.56645e-18 1.56645e-18 6.13036e-19 6.13036e-19 -2.83962e-18 -2.83962e-18 4.76583e-18 4.76583e-18 -6.14897e-18 -6.14897e-18 6.85753e-18 6.85753e-18 -6.86609e-18 -6.86609e-18 6.24047e-18 6.24047e-18 -5.11627e-18 -5.11627e-18 3.67344e-18 3.67344e-18 -2.11023e-18 -2.11023e-18 6.1887e-19 6.1887e-19 6.34705e-19 6.34705e-19 -1.52577e-18 -1.52577e-18 1.97953e-18 1.97953e-18 -1.9737e-18 -1.9737e-18 1.53547e-18 1.53547e-18 -7.3381e-19 -7.3381e-19 -3.31407e-19 -3.31407e-19 1.54216e-18 1.54216e-18 -2.77535e-18 -2.77535e-18 3.91496e-18 3.91496e-18 -4.86222e-18 -4.86222e-18 5.54311e-18 5.54311e-18 -5.91272e-18 -5.91272e-18 5.9566e-18 5.9566e-18 -5.68905e-18 -5.68905e-18 5.14921e-18 5.14921e-18 -4.39525e-18 -4.39525e-18 3.49752e-18 3.49752e-18 -2.53144e-18 -2.53144e-18 1.57068e-18 1.57068e-18 -6.81272e-19 -6.81272e-19 -8.30647e-20 -8.30647e-20 6.83945e-19 6.83945e-19 -1.09979e-18 -1.09979e-18 1.32573e-18 1.32573e-18 -1.37211e-18 -1.37211e-18 1.262e-18 1.262e-18 -1.02786e-18 -1.02786e-18 7.07925e-19 7.07925e-19 -3.42484e-19 -3.42484e-19 -2.9518e-20 -2.9518e-20 3.73395e-19 3.73395e-19 -6.60932e-19 -6.60932e-19 8.71825e-19 8.71825e-19 -9.94317e-19 -9.94317e-19 1.0251e-18 1.0251e-18 -9.68535e-19 -9.68535e-19 8.35437e-19 8.35437e-19 -6.41433e-19 -6.41433e-19 4.05208e-19 4.05208e-19 -1.46714e-19 -1.46714e-19 -1.14489e-19 -1.14489e-19 3.60657e-19 3.60657e-19 -5.76965e-19 -5.76965e-19 7.52254e-19 7.52254e-19 -8.79407e-19 -8.79407e-19 9.55376e-19 9.55376e-19 -9.80907e-19 -9.80907e-19 9.60017e-19 9.60017e-19 -8.99303e-19 -8.99303e-19 8.07154e-19 8.07154e-19 -6.92935e-19 -6.92935e-19 5.66209e-19 5.66209e-19 -4.36058e-19 -4.36058e-19 3.10515e-19 3.10515e-19 -1.96169e-19 -1.96169e-19 9.79065e-20 9.79065e-20 -1.8829e-20 -1.8829e-20 -3.97053e-20 -3.97053e-20 7.79149e-20 7.79149e-20 -9.7344e-20 -9.7344e-20 1.00554e-19 1.00554e-19 -9.07878e-20 -9.07878e-20 7.16384e-20 7.16384e-20 -4.67392e-20 -4.67392e-20 1.9501e-20 1.9501e-20 7.09653e-21 7.09653e-21 -3.06496e-20 -3.06496e-20 4.94123e-20 4.94123e-20 -6.23184e-20 -6.23184e-20 6.89506e-20 6.89506e-20 -6.94677e-20 -6.94677e-20 6.45017e-20 6.45017e-20 -5.50359e-20 -5.50359e-20 4.22766e-20 4.22766e-20 -2.75284e-20 -2.75284e-20 1.20809e-20 1.20809e-20 2.88565e-21 2.88565e-21 -1.6373e-20 -1.6373e-20 2.76128e-20 2.76128e-20 -3.60914e-20 -3.60914e-20 4.15517e-20 4.15517e-20 -4.39773e-20 -4.39773e-20 4.35604e-20 4.35604e-20 -4.06607e-20 -4.06607e-20 3.57579e-20 3.57579e-20 -2.9402e-20 -2.9402e-20 2.21672e-20 2.21672e-20 -1.46091e-20 -1.46091e-20 7.23073e-21 7.23073e-21 -4.56157e-22 -4.56157e-22 -5.38635e-21 -5.38635e-21 1.00723e-20 1.00723e-20 -1.3481e-20 -1.3481e-20 1.55884e-20 1.55884e-20 -1.64545e-20 -1.64545e-20 1.62076e-20 1.62076e-20 -1.50258e-20 -1.50258e-20 1.31182e-20 1.31182e-20 -1.07069e-20 -1.07069e-20 8.01123e-21 8.01123e-21 -5.23385e-21 -5.23385e-21 2.55084e-21 2.55084e-21 -1.04543e-22 -1.04543e-22 -1.99999e-21 -1.99999e-21 3.69573e-21 3.69573e-21 -4.95176e-21 -4.95176e-21 5.76934e-21 5.76934e-21 -6.17651e-21 -6.17651e-21 6.22189e-21 6.22189e-21 -5.96808e-21 -5.96808e-21 5.48533e-21 5.48533e-21 -4.84568e-21 -4.84568e-21 4.11805e-21 4.11805e-21 -3.36432e-21 -3.36432e-21 2.63651e-21 2.63651e-21 -1.97516e-21 -1.97516e-21 1.40868e-21 1.40868e-21 -9.53687e-22 -9.53687e-22 6.15972e-22 6.15972e-22 -3.92122e-22 -3.92122e-22 2.71415e-22 2.71415e-22 -2.37888e-22 -2.37888e-22 2.7241e-22 2.7241e-22 -3.54585e-22 -3.54585e-22 4.64424e-22 4.64424e-22 -5.83683e-22 -5.83683e-22 6.9685e-22 6.9685e-22 -7.91765e-22 -7.91765e-22 8.59902e-22 8.59902e-22 -8.96346e-22 -8.96346e-22 8.9952e-22 8.9952e-22 -8.70728e-22 -8.70728e-22 8.13573e-22 8.13573e-22 -7.33308e-22 -7.33308e-22 6.3619e-22 6.3619e-22 -5.28864e-22 -5.28864e-22 4.17832e-22 4.17832e-22 -3.09007e-22 -3.09007e-22 2.07398e-22 2.07398e-22 -1.16898e-22 -1.16898e-22 4.01854e-23 4.01854e-23 2.12663e-23 2.12663e-23 -6.71085e-23 -6.71085e-23 9.79657e-23 9.79657e-23 -1.15246e-22 -1.15246e-22 1.20925e-22 1.20925e-22 -1.17333e-22 -1.17333e-22 1.06945e-22 1.06945e-22 -9.21973e-23 -9.21973e-23 7.53424e-23 7.53424e-23 -5.83305e-23 -5.83305e-23 4.27364e-23 4.27364e-23 -2.97215e-23 -2.97215e-23 2.00292e-23 2.00292e-23 -1.40088e-23 -1.40088e-23 1.16617e-23 1.16617e-23 -1.27022e-23 -1.27022e-23 1.66273e-23 1.66273e-23 -2.27892e-23 -2.27892e-23 3.04648e-23 3.04648e-23 -3.89182e-23 -3.89182e-23 4.7454e-23 4.7454e-23 -5.54579e-23 -5.54579e-23 6.2426e-23 6.2426e-23 -6.79812e-23 -6.79812e-23 7.18782e-23 7.18782e-23 -7.39997e-23 -7.39997e-23 7.43443e-23 7.43443e-23 -7.30091e-23 -7.30091e-23 7.0169e-23 7.0169e-23 -6.6054e-23 -6.6054e-23 6.09277e-23 6.09277e-23 -5.50669e-23 -5.50669e-23 4.87436e-23 4.87436e-23 -4.22117e-23 -4.22117e-23 3.56955e-23 3.56955e-23 -2.9384e-23 -2.9384e-23 2.34266e-23 2.34266e-23 -1.79335e-23 -1.79335e-23 1.29775e-23 1.29775e-23 -8.59815e-24 -8.59815e-24 4.80672e-24 4.80672e-24 -1.59211e-24 -1.59211e-24 -1.07339e-24 -1.07339e-24 3.22867e-24 3.22867e-24 -4.91894e-24 -4.91894e-24 6.19184e-24 6.19184e-24 -7.09442e-24 -7.09442e-24 7.67114e-24 7.67114e-24 -7.96271e-24 -7.96271e-24 8.00567e-24 8.00567e-24 -7.83263e-24 -7.83263e-24 7.47281e-24 7.47281e-24 -6.9529e-24 -6.9529e-24 6.29794e-24 6.29794e-24 -5.5321e-24 -5.5321e-24 4.67938e-24 4.67938e-24 -3.76397e-24 -3.76397e-24 2.81043e-24 2.81043e-24 -1.84353e-24 -1.84353e-24 8.879e-25 8.879e-25 3.25059e-26 3.25059e-26 -8.95107e-25 -8.95107e-25 1.6794e-24 1.6794e-24 -2.3677e-24 -2.3677e-24 2.94571e-24 2.94571e-24 -3.40311e-24 -3.40311e-24 3.73379e-24 3.73379e-24 -3.93606e-24 -3.93606e-24 4.01254e-24 4.01254e-24 -3.96992e-24 -3.96992e-24 3.8185e-24 3.8185e-24 -3.57162e-24 -3.57162e-24 3.24495e-24 3.24495e-24 -2.85577e-24 -2.85577e-24 2.42212e-24 2.42212e-24 -1.9621e-24 -1.9621e-24 1.49312e-24 1.49312e-24 -1.03128e-24 -1.03128e-24 5.90834e-25 5.90834e-25 -1.83843e-25 -1.83843e-25 -1.80132e-25 -1.80132e-25 4.94135e-25 4.94135e-25 -7.53826e-25 -7.53826e-25 9.57363e-25 9.57363e-25 -1.1052e-24 -1.1052e-24 1.1998e-24 1.1998e-24 -1.24528e-24 -1.24528e-24 1.2471e-24 1.2471e-24 -1.21158e-24 -1.21158e-24 1.14562e-24 1.14562e-24 -1.0563e-24 -1.0563e-24 9.50561e-25 9.50561e-25 -8.34965e-25 -8.34965e-25 7.15459e-25 7.15459e-25 -5.97224e-25 -5.97224e-25 4.84571e-25 4.84571e-25 -3.80886e-25 -3.80886e-25 2.88635e-25 2.88635e-25 -2.09391e-25 -2.09391e-25 1.43917e-25 1.43917e-25 -9.22513e-26 -9.22513e-26 5.38298e-26 5.38298e-26 -2.76034e-26 -2.76034e-26 1.2165e-26 1.2165e-26 -5.87057e-27 -5.87057e-27 6.95193e-27 6.95193e-27 -1.36164e-26 -1.36164e-26 2.4132e-26 2.4132e-26 -3.68957e-26 -3.68957e-26 5.04846e-26 5.04846e-26 -6.36912e-26 -6.36912e-26 7.55419e-26 7.55419e-26 -8.53032e-26 -8.53032e-26 9.24752e-26 9.24752e-26 -9.67758e-26 -9.67758e-26 9.81177e-26 9.81177e-26 -9.65807e-26 -9.65807e-26 9.23809e-26 9.23809e-26 -8.58392e-26 -8.58392e-26 7.73497e-26 7.73497e-26 -6.73508e-26 -6.73508e-26 5.62988e-26 5.62988e-26 -4.46449e-26 -4.46449e-26 3.28163e-26 3.28163e-26 -2.12012e-26 -2.12012e-26 1.0138e-26 1.0138e-26 9.16771e-29 9.16771e-29 -9.26698e-27 -9.26698e-27 1.72281e-26 1.72281e-26 -2.38745e-26 -2.38745e-26 2.91609e-26 2.91609e-26 -3.30917e-26 -3.30917e-26 3.57146e-26 3.57146e-26 -3.71131e-26 -3.71131e-26 3.73989e-26 3.73989e-26 -3.67046e-26 -3.67046e-26 3.51766e-26 3.51766e-26 -3.2968e-26 -3.2968e-26 3.02333e-26 3.02333e-26 -2.71227e-26 -2.71227e-26 2.37778e-26 2.37778e-26 -2.03286e-26 -2.03286e-26 1.68904e-26 1.68904e-26 -1.35623e-26 -1.35623e-26 1.04262e-26 1.04262e-26 -7.54636e-27 -7.54636e-27 4.9699e-27 4.9699e-27 -2.72755e-27 -2.72755e-27 8.34911e-28 8.34911e-28 7.0593e-28 7.0593e-28 -1.90459e-27 -1.90459e-27 2.78043e-27 2.78043e-27 -3.3605e-27 -3.3605e-27 3.67754e-27 3.67754e-27 -3.76804e-27 -3.76804e-27 3.67043e-27 3.67043e-27 -3.42346e-27 -3.42346e-27 3.06479e-27 3.06479e-27 -2.6298e-27 -2.6298e-27 2.15067e-27 2.15067e-27 -1.65566e-27 -1.65566e-27 1.16871e-27 1.16871e-27 -7.09177e-28 -7.09177e-28 2.91858e