# vtk DataFile Version 3.0
#This file was generated by the deal.II library on 2020/8/11 at 22:16:28
ASCII
DATASET UNSTRUCTURED_GRID

POINTS 4096 double
0.5 0 0
0.743896 0 0
0.743896 0 0
0.987793 0 0
0.987793 0 0
1.23169 0 0
1.23169 0 0
1.47559 0 0
1.47559 0 0
1.71948 0 0
1.71948 0 0
1.96338 0 0
1.96338 0 0
2.20728 0 0
2.20728 0 0
2.45117 0 0
2.45117 0 0
2.69507 0 0
2.69507 0 0
2.93896 0 0
2.93896 0 0
3.18286 0 0
3.18286 0 0
3.42676 0 0
3.42676 0 0
3.67065 0 0
3.67065 0 0
3.91455 0 0
3.91455 0 0
4.15845 0 0
4.15845 0 0
4.40234 0 0
4.40234 0 0
4.64624 0 0
4.64624 0 0
4.89014 0 0
4.89014 0 0
5.13403 0 0
5.13403 0 0
5.37793 0 0
5.37793 0 0
5.62183 0 0
5.62183 0 0
5.86572 0 0
5.86572 0 0
6.10962 0 0
6.10962 0 0
6.35352 0 0
6.35352 0 0
6.59741 0 0
6.59741 0 0
6.84131 0 0
6.84131 0 0
7.08521 0 0
7.08521 0 0
7.3291 0 0
7.3291 0 0
7.573 0 0
7.573 0 0
7.81689 0 0
7.81689 0 0
8.06079 0 0
8.06079 0 0
8.30469 0 0
8.30469 0 0
8.54858 0 0
8.54858 0 0
8.79248 0 0
8.79248 0 0
9.03638 0 0
9.03638 0 0
9.28027 0 0
9.28027 0 0
9.52417 0 0
9.52417 0 0
9.76807 0 0
9.76807 0 0
10.012 0 0
10.012 0 0
10.2559 0 0
10.2559 0 0
10.4998 0 0
10.4998 0 0
10.7437 0 0
10.7437 0 0
10.9875 0 0
10.9875 0 0
11.2314 0 0
11.2314 0 0
11.4753 0 0
11.4753 0 0
11.7192 0 0
11.7192 0 0
11.9631 0 0
11.9631 0 0
12.207 0 0
12.207 0 0
12.4509 0 0
12.4509 0 0
12.6948 0 0
12.6948 0 0
12.9387 0 0
12.9387 0 0
13.1826 0 0
13.1826 0 0
13.4265 0 0
13.4265 0 0
13.6704 0 0
13.6704 0 0
13.9143 0 0
13.9143 0 0
14.1582 0 0
14.1582 0 0
14.4021 0 0
14.4021 0 0
14.646 0 0
14.646 0 0
14.8899 0 0
14.8899 0 0
15.1338 0 0
15.1338 0 0
15.3777 0 0
15.3777 0 0
15.6216 0 0
15.6216 0 0
15.8655 0 0
15.8655 0 0
16.1094 0 0
16.1094 0 0
16.3533 0 0
16.3533 0 0
16.5972 0 0
16.5972 0 0
16.8411 0 0
16.8411 0 0
17.085 0 0
17.085 0 0
17.3289 0 0
17.3289 0 0
17.5728 0 0
17.5728 0 0
17.8167 0 0
17.8167 0 0
18.0605 0 0
18.0605 0 0
18.3044 0 0
18.3044 0 0
18.5483 0 0
18.5483 0 0
18.7922 0 0
18.7922 0 0
19.0361 0 0
19.0361 0 0
19.28 0 0
19.28 0 0
19.5239 0 0
19.5239 0 0
19.7678 0 0
19.7678 0 0
20.0117 0 0
20.0117 0 0
20.2556 0 0
20.2556 0 0
20.4995 0 0
20.4995 0 0
20.7434 0 0
20.7434 0 0
20.9873 0 0
20.9873 0 0
21.2312 0 0
21.2312 0 0
21.4751 0 0
21.4751 0 0
21.719 0 0
21.719 0 0
21.9629 0 0
21.9629 0 0
22.2068 0 0
22.2068 0 0
22.4507 0 0
22.4507 0 0
22.6946 0 0
22.6946 0 0
22.9385 0 0
22.9385 0 0
23.1824 0 0
23.1824 0 0
23.4263 0 0
23.4263 0 0
23.6702 0 0
23.6702 0 0
23.9141 0 0
23.9141 0 0
24.158 0 0
24.158 0 0
24.4019 0 0
24.4019 0 0
24.6458 0 0
24.6458 0 0
24.8896 0 0
24.8896 0 0
25.1335 0 0
25.1335 0 0
25.3774 0 0
25.3774 0 0
25.6213 0 0
25.6213 0 0
25.8652 0 0
25.8652 0 0
26.1091 0 0
26.1091 0 0
26.353 0 0
26.353 0 0
26.5969 0 0
26.5969 0 0
26.8408 0 0
26.8408 0 0
27.0847 0 0
27.0847 0 0
27.3286 0 0
27.3286 0 0
27.5725 0 0
27.5725 0 0
27.8164 0 0
27.8164 0 0
28.0603 0 0
28.0603 0 0
28.3042 0 0
28.3042 0 0
28.5481 0 0
28.5481 0 0
28.792 0 0
28.792 0 0
29.0359 0 0
29.0359 0 0
29.2798 0 0
29.2798 0 0
29.5237 0 0
29.5237 0 0
29.7676 0 0
29.7676 0 0
30.0115 0 0
30.0115 0 0
30.2554 0 0
30.2554 0 0
30.4993 0 0
30.4993 0 0
30.7432 0 0
30.7432 0 0
30.9871 0 0
30.9871 0 0
31.231 0 0
31.231 0 0
31.4749 0 0
31.4749 0 0
31.7188 0 0
31.7188 0 0
31.9626 0 0
31.9626 0 0
32.2065 0 0
32.2065 0 0
32.4504 0 0
32.4504 0 0
32.6943 0 0
32.6943 0 0
32.9382 0 0
32.9382 0 0
33.1821 0 0
33.1821 0 0
33.426 0 0
33.426 0 0
33.6699 0 0
33.6699 0 0
33.9138 0 0
33.9138 0 0
34.1577 0 0
34.1577 0 0
34.4016 0 0
34.4016 0 0
34.6455 0 0
34.6455 0 0
34.8894 0 0
34.8894 0 0
35.1333 0 0
35.1333 0 0
35.3772 0 0
35.3772 0 0
35.6211 0 0
35.6211 0 0
35.865 0 0
35.865 0 0
36.1089 0 0
36.1089 0 0
36.3528 0 0
36.3528 0 0
36.5967 0 0
36.5967 0 0
36.8406 0 0
36.8406 0 0
37.0845 0 0
37.0845 0 0
37.3284 0 0
37.3284 0 0
37.5723 0 0
37.5723 0 0
37.8162 0 0
37.8162 0 0
38.0601 0 0
38.0601 0 0
38.304 0 0
38.304 0 0
38.5479 0 0
38.5479 0 0
38.7917 0 0
38.7917 0 0
39.0356 0 0
39.0356 0 0
39.2795 0 0
39.2795 0 0
39.5234 0 0
39.5234 0 0
39.7673 0 0
39.7673 0 0
40.0112 0 0
40.0112 0 0
40.2551 0 0
40.2551 0 0
40.499 0 0
40.499 0 0
40.7429 0 0
40.7429 0 0
40.9868 0 0
40.9868 0 0
41.2307 0 0
41.2307 0 0
41.4746 0 0
41.4746 0 0
41.7185 0 0
41.7185 0 0
41.9624 0 0
41.9624 0 0
42.2063 0 0
42.2063 0 0
42.4502 0 0
42.4502 0 0
42.6941 0 0
42.6941 0 0
42.938 0 0
42.938 0 0
43.1819 0 0
43.1819 0 0
43.4258 0 0
43.4258 0 0
43.6697 0 0
43.6697 0 0
43.9136 0 0
43.9136 0 0
44.1575 0 0
44.1575 0 0
44.4014 0 0
44.4014 0 0
44.6453 0 0
44.6453 0 0
44.8892 0 0
44.8892 0 0
45.1331 0 0
45.1331 0 0
45.377 0 0
45.377 0 0
45.6208 0 0
45.6208 0 0
45.8647 0 0
45.8647 0 0
46.1086 0 0
46.1086 0 0
46.3525 0 0
46.3525 0 0
46.5964 0 0
46.5964 0 0
46.8403 0 0
46.8403 0 0
47.0842 0 0
47.0842 0 0
47.3281 0 0
47.3281 0 0
47.572 0 0
47.572 0 0
47.8159 0 0
47.8159 0 0
48.0598 0 0
48.0598 0 0
48.3037 0 0
48.3037 0 0
48.5476 0 0
48.5476 0 0
48.7915 0 0
48.7915 0 0
49.0354 0 0
49.0354 0 0
49.2793 0 0
49.2793 0 0
49.5232 0 0
49.5232 0 0
49.7671 0 0
49.7671 0 0
50.011 0 0
50.011 0 0
50.2549 0 0
50.2549 0 0
50.4988 0 0
50.4988 0 0
50.7427 0 0
50.7427 0 0
50.9866 0 0
50.9866 0 0
51.2305 0 0
51.2305 0 0
51.4744 0 0
51.4744 0 0
51.7183 0 0
51.7183 0 0
51.9622 0 0
51.9622 0 0
52.2061 0 0
52.2061 0 0
52.45 0 0
52.45 0 0
52.6938 0 0
52.6938 0 0
52.9377 0 0
52.9377 0 0
53.1816 0 0
53.1816 0 0
53.4255 0 0
53.4255 0 0
53.6694 0 0
53.6694 0 0
53.9133 0 0
53.9133 0 0
54.1572 0 0
54.1572 0 0
54.4011 0 0
54.4011 0 0
54.645 0 0
54.645 0 0
54.8889 0 0
54.8889 0 0
55.1328 0 0
55.1328 0 0
55.3767 0 0
55.3767 0 0
55.6206 0 0
55.6206 0 0
55.8645 0 0
55.8645 0 0
56.1084 0 0
56.1084 0 0
56.3523 0 0
56.3523 0 0
56.5962 0 0
56.5962 0 0
56.8401 0 0
56.8401 0 0
57.084 0 0
57.084 0 0
57.3279 0 0
57.3279 0 0
57.5718 0 0
57.5718 0 0
57.8157 0 0
57.8157 0 0
58.0596 0 0
58.0596 0 0
58.3035 0 0
58.3035 0 0
58.5474 0 0
58.5474 0 0
58.7913 0 0
58.7913 0 0
59.0352 0 0
59.0352 0 0
59.2791 0 0
59.2791 0 0
59.5229 0 0
59.5229 0 0
59.7668 0 0
59.7668 0 0
60.0107 0 0
60.0107 0 0
60.2546 0 0
60.2546 0 0
60.4985 0 0
60.4985 0 0
60.7424 0 0
60.7424 0 0
60.9863 0 0
60.9863 0 0
61.2302 0 0
61.2302 0 0
61.4741 0 0
61.4741 0 0
61.718 0 0
61.718 0 0
61.9619 0 0
61.9619 0 0
62.2058 0 0
62.2058 0 0
62.4497 0 0
62.4497 0 0
62.6936 0 0
62.6936 0 0
62.9375 0 0
62.9375 0 0
63.1814 0 0
63.1814 0 0
63.4253 0 0
63.4253 0 0
63.6692 0 0
63.6692 0 0
63.9131 0 0
63.9131 0 0
64.157 0 0
64.157 0 0
64.4009 0 0
64.4009 0 0
64.6448 0 0
64.6448 0 0
64.8887 0 0
64.8887 0 0
65.1326 0 0
65.1326 0 0
65.3765 0 0
65.3765 0 0
65.6204 0 0
65.6204 0 0
65.8643 0 0
65.8643 0 0
66.1082 0 0
66.1082 0 0
66.3521 0 0
66.3521 0 0
66.5959 0 0
66.5959 0 0
66.8398 0 0
66.8398 0 0
67.0837 0 0
67.0837 0 0
67.3276 0 0
67.3276 0 0
67.5715 0 0
67.5715 0 0
67.8154 0 0
67.8154 0 0
68.0593 0 0
68.0593 0 0
68.3032 0 0
68.3032 0 0
68.5471 0 0
68.5471 0 0
68.791 0 0
68.791 0 0
69.0349 0 0
69.0349 0 0
69.2788 0 0
69.2788 0 0
69.5227 0 0
69.5227 0 0
69.7666 0 0
69.7666 0 0
70.0105 0 0
70.0105 0 0
70.2544 0 0
70.2544 0 0
70.4983 0 0
70.4983 0 0
70.7422 0 0
70.7422 0 0
70.9861 0 0
70.9861 0 0
71.23 0 0
71.23 0 0
71.4739 0 0
71.4739 0 0
71.7178 0 0
71.7178 0 0
71.9617 0 0
71.9617 0 0
72.2056 0 0
72.2056 0 0
72.4495 0 0
72.4495 0 0
72.6934 0 0
72.6934 0 0
72.9373 0 0
72.9373 0 0
73.1812 0 0
73.1812 0 0
73.425 0 0
73.425 0 0
73.6689 0 0
73.6689 0 0
73.9128 0 0
73.9128 0 0
74.1567 0 0
74.1567 0 0
74.4006 0 0
74.4006 0 0
74.6445 0 0
74.6445 0 0
74.8884 0 0
74.8884 0 0
75.1323 0 0
75.1323 0 0
75.3762 0 0
75.3762 0 0
75.6201 0 0
75.6201 0 0
75.864 0 0
75.864 0 0
76.1079 0 0
76.1079 0 0
76.3518 0 0
76.3518 0 0
76.5957 0 0
76.5957 0 0
76.8396 0 0
76.8396 0 0
77.0835 0 0
77.0835 0 0
77.3274 0 0
77.3274 0 0
77.5713 0 0
77.5713 0 0
77.8152 0 0
77.8152 0 0
78.0591 0 0
78.0591 0 0
78.303 0 0
78.303 0 0
78.5469 0 0
78.5469 0 0
78.7908 0 0
78.7908 0 0
79.0347 0 0
79.0347 0 0
79.2786 0 0
79.2786 0 0
79.5225 0 0
79.5225 0 0
79.7664 0 0
79.7664 0 0
80.0103 0 0
80.0103 0 0
80.2542 0 0
80.2542 0 0
80.498 0 0
80.498 0 0
80.7419 0 0
80.7419 0 0
80.9858 0 0
80.9858 0 0
81.2297 0 0
81.2297 0 0
81.4736 0 0
81.4736 0 0
81.7175 0 0
81.7175 0 0
81.9614 0 0
81.9614 0 0
82.2053 0 0
82.2053 0 0
82.4492 0 0
82.4492 0 0
82.6931 0 0
82.6931 0 0
82.937 0 0
82.937 0 0
83.1809 0 0
83.1809 0 0
83.4248 0 0
83.4248 0 0
83.6687 0 0
83.6687 0 0
83.9126 0 0
83.9126 0 0
84.1565 0 0
84.1565 0 0
84.4004 0 0
84.4004 0 0
84.6443 0 0
84.6443 0 0
84.8882 0 0
84.8882 0 0
85.1321 0 0
85.1321 0 0
85.376 0 0
85.376 0 0
85.6199 0 0
85.6199 0 0
85.8638 0 0
85.8638 0 0
86.1077 0 0
86.1077 0 0
86.3516 0 0
86.3516 0 0
86.5955 0 0
86.5955 0 0
86.8394 0 0
86.8394 0 0
87.0833 0 0
87.0833 0 0
87.3271 0 0
87.3271 0 0
87.571 0 0
87.571 0 0
87.8149 0 0
87.8149 0 0
88.0588 0 0
88.0588 0 0
88.3027 0 0
88.3027 0 0
88.5466 0 0
88.5466 0 0
88.7905 0 0
88.7905 0 0
89.0344 0 0
89.0344 0 0
89.2783 0 0
89.2783 0 0
89.5222 0 0
89.5222 0 0
89.7661 0 0
89.7661 0 0
90.01 0 0
90.01 0 0
90.2539 0 0
90.2539 0 0
90.4978 0 0
90.4978 0 0
90.7417 0 0
90.7417 0 0
90.9856 0 0
90.9856 0 0
91.2295 0 0
91.2295 0 0
91.4734 0 0
91.4734 0 0
91.7173 0 0
91.7173 0 0
91.9612 0 0
91.9612 0 0
92.2051 0 0
92.2051 0 0
92.449 0 0
92.449 0 0
92.6929 0 0
92.6929 0 0
92.9368 0 0
92.9368 0 0
93.1807 0 0
93.1807 0 0
93.4246 0 0
93.4246 0 0
93.6685 0 0
93.6685 0 0
93.9124 0 0
93.9124 0 0
94.1562 0 0
94.1562 0 0
94.4001 0 0
94.4001 0 0
94.644 0 0
94.644 0 0
94.8879 0 0
94.8879 0 0
95.1318 0 0
95.1318 0 0
95.3757 0 0
95.3757 0 0
95.6196 0 0
95.6196 0 0
95.8635 0 0
95.8635 0 0
96.1074 0 0
96.1074 0 0
96.3513 0 0
96.3513 0 0
96.5952 0 0
96.5952 0 0
96.8391 0 0
96.8391 0 0
97.083 0 0
97.083 0 0
97.3269 0 0
97.3269 0 0
97.5708 0 0
97.5708 0 0
97.8147 0 0
97.8147 0 0
98.0586 0 0
98.0586 0 0
98.3025 0 0
98.3025 0 0
98.5464 0 0
98.5464 0 0
98.7903 0 0
98.7903 0 0
99.0342 0 0
99.0342 0 0
99.2781 0 0
99.2781 0 0
99.522 0 0
99.522 0 0
99.7659 0 0
99.7659 0 0
100.01 0 0
100.01 0 0
100.254 0 0
100.254 0 0
100.498 0 0
100.498 0 0
100.741 0 0
100.741 0 0
100.985 0 0
100.985 0 0
101.229 0 0
101.229 0 0
101.473 0 0
[...]
POINT_DATA 4096
SCALARS solution_0 double 1
LOOKUP_TABLE default
0.00654727 -6.32759 -6.32759 -1.71631 -1.71631 -0.789112 -0.789112 -0.288961 -0.288961 -0.0487758 -0.0487758 0.138923 0.138923 0.200568 0.200568 0.23502 0.23502 0.139635 0.139635 0.00993674 0.00993674 -0.096531 -0.096531 -0.0832694 -0.0832694 0.011887 0.011887 0.192788 0.192788 0.172748 0.172748 0.203199 0.203199 0.306627 0.306627 0.674757 0.674757 1.05924 1.05924 1.54476 1.54476 2.16406 2.16406 3.13279 3.13279 4.21132 4.21132 5.27108 5.27108 6.41791 6.41791 7.45861 7.45861 8.23275 8.23275 8.51464 8.51464 8.49238 8.49238 7.97522 7.97522 7.06522 7.06522 5.89734 5.89734 4.70917 4.70917 3.48793 3.48793 2.42685 2.42685 1.61369 1.61369 1.00614 1.00614 0.546373 0.546373 0.324299 0.324299 0.155551 0.155551 0.0672093 0.0672093 0.029276 0.029276 0.0264312 0.0264312 -0.0109117 -0.0109117 0.0095018 0.0095018 0.00292798 0.00292798 -0.00611728 -0.00611728 0.00242368 0.00242368 0.00391251 0.00391251 -0.00603389 -0.00603389 0.00204739 0.00204739 0.0046039 0.0046039 -0.00854753 -0.00854753 0.0068972 0.0068972 -0.00103295 -0.00103295 -0.0049749 -0.0049749 0.00751382 0.00751382 -0.00567525 -0.00567525 0.00130753 0.00130753 0.00266768 0.00266768 -0.0042138 -0.0042138 0.00314152 0.00314152 -0.000743465 -0.000743465 -0.00133661 -0.00133661 0.00212916 0.00212916 -0.00168832 -0.00168832 0.00075058 0.00075058 -9.67668e-05 -9.67668e-05 7.32229e-05 7.32229e-05 -0.000507553 -0.000507553 0.000958777 0.000958777 -0.00106387 -0.00106387 0.000750738 0.000750738 -0.000225604 -0.000225604 -0.00020376 -0.00020376 0.000328339 0.000328339 -0.000141491 -0.000141491 -0.00019224 -0.00019224 0.000457766 0.000457766 -0.00051518 -0.00051518 0.00036159 0.00036159 -0.000108659 -0.000108659 -9.60441e-05 -9.60441e-05 0.000152481 0.000152481 -5.27993e-05 -5.27993e-05 -0.000128203 -0.000128203 0.000282351 0.000282351 -0.000326025 -0.000326025 0.00023741 0.00023741 -5.89905e-05 -5.89905e-05 -0.000129973 -0.000129973 0.000253391 0.000253391 -0.000270801 -0.000270801 0.000189391 0.000189391 -5.39691e-05 -5.39691e-05 -7.70145e-05 -7.70145e-05 0.000156923 0.000156923 -0.000167155 -0.000167155 0.000119268 0.000119268 -4.47925e-05 -4.47925e-05 -2.09017e-05 -2.09017e-05 5.31902e-05 5.31902e-05 -4.58483e-05 -4.58483e-05 1.01287e-05 1.01287e-05 3.27429e-05 3.27429e-05 -6.15454e-05 -6.15454e-05 6.32753e-05 6.32753e-05 -3.68496e-05 -3.68496e-05 -8.24127e-06 -8.24127e-06 5.69124e-05 5.69124e-05 -9.46373e-05 -9.46373e-05 0.000112371 0.000112371 -0.000108739 -0.000108739 8.92394e-05 8.92394e-05 -6.32698e-05 -6.32698e-05 4.04028e-05 4.04028e-05 -2.72747e-05 -2.72747e-05 2.60045e-05 2.60045e-05 -3.43602e-05 -3.43602e-05 4.72823e-05 4.72823e-05 -5.90129e-05 -5.90129e-05 6.50377e-05 6.50377e-05 -6.32718e-05 -6.32718e-05 5.42703e-05 5.42703e-05 -4.05973e-05 -4.05973e-05 2.5714e-05 2.5714e-05 -1.28194e-05 -1.28194e-05 4.00041e-06 4.00041e-06 1.24136e-07 1.24136e-07 -2.64295e-07 -2.64295e-07 -2.02801e-06 -2.02801e-06 4.97756e-06 4.97756e-06 -7.12911e-06 -7.12911e-06 7.67675e-06 7.67675e-06 -6.5334e-06 -6.5334e-06 4.17992e-06 4.17992e-06 -1.38714e-06 -1.38714e-06 -1.08086e-06 -1.08086e-06 2.69331e-06 2.69331e-06 -3.26086e-06 -3.26086e-06 2.92134e-06 2.92134e-06 -2.03475e-06 -2.03475e-06 1.03732e-06 1.03732e-06 -3.04694e-07 -3.04694e-07 6.02166e-08 6.02166e-08 -3.4386e-07 -3.4386e-07 1.0372e-06 1.0372e-06 -1.92555e-06 -1.92555e-06 2.77273e-06 2.77273e-06 -3.38603e-06 -3.38603e-06 3.65651e-06 3.65651e-06 -3.56991e-06 -3.56991e-06 3.19178e-06 3.19178e-06 -2.63647e-06 -2.63647e-06 2.03133e-06 2.03133e-06 -1.486e-06 -1.486e-06 1.07298e-06 1.07298e-06 -8.21322e-07 -8.21322e-07 7.21633e-07 7.21633e-07 -7.38228e-07 -7.38228e-07 8.23707e-07 8.23707e-07 -9.31889e-07 -9.31889e-07 1.02662e-06 1.02662e-06 -1.08568e-06 -1.08568e-06 1.10045e-06 1.10045e-06 -1.07283e-06 -1.07283e-06 1.0111e-06 1.0111e-06 -9.26056e-07 -9.26056e-07 8.28237e-07 8.28237e-07 -7.26451e-07 -7.26451e-07 6.27301e-07 6.27301e-07 -5.35309e-07 -5.35309e-07 4.53182e-07 4.53182e-07 -3.81986e-07 -3.81986e-07 3.21185e-07 3.21185e-07 -2.68662e-07 -2.68662e-07 2.20929e-07 2.20929e-07 -1.73653e-07 -1.73653e-07 1.22513e-07 1.22513e-07 -6.42687e-08 -6.42687e-08 -2.22159e-09 -2.22159e-09 7.52989e-08 7.52989e-08 -1.5036e-07 -1.5036e-07 2.20375e-07 2.20375e-07 -2.77016e-07 -2.77016e-07 3.12195e-07 3.12195e-07 -3.19693e-07 -3.19693e-07 2.96545e-07 2.96545e-07 -2.43881e-07 -2.43881e-07 1.67033e-07 1.67033e-07 -7.48889e-08 -7.48889e-08 -2.14006e-08 -2.14006e-08 1.10112e-07 1.10112e-07 -1.80721e-07 -1.80721e-07 2.25449e-07 2.25449e-07 -2.40314e-07 -2.40314e-07 2.25543e-07 2.25543e-07 -1.85297e-07 -1.85297e-07 1.26821e-07 1.26821e-07 -5.91759e-08 -5.91759e-08 -8.19661e-09 -8.19661e-09 6.68332e-08 6.68332e-08 -1.10334e-07 -1.10334e-07 1.3503e-07 1.3503e-07 -1.4017e-07 -1.4017e-07 1.27669e-07 1.27669e-07 -1.01497e-07 -1.01497e-07 6.68526e-08 6.68526e-08 -2.92769e-08 -2.92769e-08 -6.15432e-09 -6.15432e-09 3.54499e-08 3.54499e-08 -5.60707e-08 -5.60707e-08 6.703e-08 6.703e-08 -6.87567e-08 -6.87567e-08 6.27802e-08 6.27802e-08 -5.13149e-08 -5.13149e-08 3.68248e-08 3.68248e-08 -2.1635e-08 -2.1635e-08 7.64052e-09 7.64052e-09 3.86432e-09 3.86432e-09 -1.22322e-08 -1.22322e-08 1.74047e-08 1.74047e-08 -1.97789e-08 -1.97789e-08 2.00357e-08 2.00357e-08 -1.89642e-08 -1.89642e-08 1.73103e-08 1.73103e-08 -1.56685e-08 -1.56685e-08 1.44242e-08 1.44242e-08 -1.37446e-08 -1.37446e-08 1.36088e-08 1.36088e-08 -1.38627e-08 -1.38627e-08 1.42842e-08 1.42842e-08 -1.46455e-08 -1.46455e-08 1.47613e-08 1.47613e-08 -1.45184e-08 -1.45184e-08 1.38857e-08 1.38857e-08 -1.29056e-08 -1.29056e-08 1.16744e-08 1.16744e-08 -1.03155e-08 -1.03155e-08 8.95268e-09 8.95268e-09 -7.68848e-09 -7.68848e-09 6.58992e-09 6.58992e-09 -5.68347e-09 -5.68347e-09 4.95813e-09 4.95813e-09 -4.37478e-09 -4.37478e-09 3.87906e-09 3.87906e-09 -3.41479e-09 -3.41479e-09 2.93555e-09 2.93555e-09 -2.41264e-09 -2.41264e-09 1.8386e-09 1.8386e-09 -1.22623e-09 -1.22623e-09 6.04194e-10 6.04194e-10 -1.02012e-11 -1.02012e-11 -5.16597e-10 -5.16597e-10 9.42623e-10 9.42623e-10 -1.24524e-09 -1.24524e-09 1.41579e-09 1.41579e-09 -1.46012e-09 -1.46012e-09 1.39679e-09 1.39679e-09 -1.25362e-09 -1.25362e-09 1.0632e-09 1.0632e-09 -8.58262e-10 -8.58262e-10 6.67537e-10 6.67537e-10 -5.12722e-10 -5.12722e-10 4.06759e-10 4.06759e-10 -3.53544e-10 -3.53544e-10 3.48884e-10 3.48884e-10 -3.82403e-10 -3.82403e-10 4.39983e-10 4.39983e-10 -5.06326e-10 -5.06326e-10 5.67271e-10 5.67271e-10 -6.11588e-10 -6.11588e-10 6.32071e-10 6.32071e-10 -6.25909e-10 -6.25909e-10 5.94394e-10 5.94394e-10 -5.4211e-10 -5.4211e-10 4.75799e-10 4.75799e-10 -4.03115e-10 -4.03115e-10 3.31458e-10 3.31458e-10 -2.67022e-10 -2.67022e-10 2.14162e-10 2.14162e-10 -1.75116e-10 -1.75116e-10 1.50049e-10 1.50049e-10 -1.37372e-10 -1.37372e-10 1.34248e-10 1.34248e-10 -1.3717e-10 -1.3717e-10 1.42546e-10 1.42546e-10 -1.47189e-10 -1.47189e-10 1.48676e-10 1.48676e-10 -1.4554e-10 -1.4554e-10 1.3731e-10 1.3731e-10 -1.244e-10 -1.244e-10 1.07907e-10 1.07907e-10 -8.93434e-11 -8.93434e-11 7.03646e-11 7.03646e-11 -5.25146e-11 -5.25146e-11 3.70326e-11 3.70326e-11 -2.47295e-11 -2.47295e-11 1.59414e-11 1.59414e-11 -1.05535e-11 -1.05535e-11 8.08044e-12 8.08044e-12 -7.78207e-12 -7.78207e-12 8.79582e-12 8.79582e-12 -1.02642e-11 -1.02642e-11 1.14425e-11 1.14425e-11 -1.17756e-11 -1.17756e-11 1.09391e-11 1.09391e-11 -8.84484e-12 -8.84484e-12 5.61581e-12 5.61581e-12 -1.53856e-12 -1.53856e-12 -2.99779e-12 -2.99779e-12 7.56586e-12 7.56586e-12 -1.17593e-11 -1.17593e-11 1.52405e-11 1.52405e-11 -1.77728e-11 -1.77728e-11 1.9235e-11 1.9235e-11 -1.96209e-11 -1.96209e-11 1.9024e-11 1.9024e-11 -1.76137e-11 -1.76137e-11 1.56062e-11 1.56062e-11 -1.32343e-11 -1.32343e-11 1.0721e-11 1.0721e-11 -8.25795e-12 -8.25795e-12 5.99198e-12 5.99198e-12 -4.01872e-12 -4.01872e-12 2.3837e-12 2.3837e-12 -1.08895e-12 -1.08895e-12 1.03598e-13 1.03598e-13 6.23753e-13 6.23753e-13 -1.15265e-12 -1.15265e-12 1.54003e-12 1.54003e-12 -1.8322e-12 -1.8322e-12 2.06011e-12 2.06011e-12 -2.23791e-12 -2.23791e-12 2.36457e-12 2.36457e-12 -2.42766e-12 -2.42766e-12 2.4086e-12 2.4086e-12 -2.28822e-12 -2.28822e-12 2.05194e-12 2.05194e-12 -1.69385e-12 -1.69385e-12 1.21917e-12 1.21917e-12 -6.4498e-13 -6.4498e-13 -8.25492e-16 -8.25492e-16 6.81937e-13 6.81937e-13 -1.35714e-12 -1.35714e-12 1.9843e-12 1.9843e-12 -2.52444e-12 -2.52444e-12 2.94531e-12 2.94531e-12 -3.22413e-12 -3.22413e-12 3.34936e-12 3.34936e-12 -3.32121e-12 -3.32121e-12 3.15105e-12 3.15105e-12 -2.85985e-12 -2.85985e-12 2.47578e-12 2.47578e-12 -2.03146e-12 -2.03146e-12 1.56094e-12 1.56094e-12 -1.09687e-12 -1.09687e-12 6.68007e-13 6.68007e-13 -2.9736e-13 -2.9736e-13 9.20299e-16 9.20299e-16 2.1282e-13 2.1282e-13 -3.4269e-13 -3.4269e-13 3.94069e-13 3.94069e-13 -3.77654e-13 -3.77654e-13 3.0793e-13 3.0793e-13 -2.01509e-13 -2.01509e-13 7.5502e-14 7.5502e-14 5.39471e-14 5.39471e-14 -1.7286e-13 -1.7286e-13 2.70284e-13 2.70284e-13 -3.38781e-13 -3.38781e-13 3.74566e-13 3.74566e-13 -3.77312e-13 -3.77312e-13 3.49701e-13 3.49701e-13 -2.96773e-13 -2.96773e-13 2.2518e-13 2.2518e-13 -1.42393e-13 -1.42393e-13 5.5964e-14 5.5964e-14 2.71295e-14 2.71295e-14 -1.00994e-13 -1.00994e-13 1.61172e-13 1.61172e-13 -2.04829e-13 -2.04829e-13 2.30775e-13 2.30775e-13 -2.39353e-13 -2.39353e-13 2.32214e-13 2.32214e-13 -2.12019e-13 -2.12019e-13 1.82095e-13 1.82095e-13 -1.46091e-13 -1.46091e-13 1.07647e-13 1.07647e-13 -7.01154e-14 -7.01154e-14 3.63373e-14 3.63373e-14 -8.49464e-15 -8.49464e-15 -1.19707e-14 -1.19707e-14 2.43677e-14 2.43677e-14 -2.87085e-14 -2.87085e-14 2.56139e-14 2.56139e-14 -1.6186e-14 -1.6186e-14 1.86252e-15 1.86252e-15 1.57333e-14 1.57333e-14 -3.49355e-14 -3.49355e-14 5.41616e-14 5.41616e-14 -7.20141e-14 -7.20141e-14 8.73544e-14 8.73544e-14 -9.93479e-14 -9.93479e-14 1.07481e-13 1.07481e-13 -1.11551e-13 -1.11551e-13 1.11641e-13 1.11641e-13 -1.0807e-13 -1.0807e-13 1.01343e-13 1.01343e-13 -9.20907e-14 -9.20907e-14 8.10106e-14 8.10106e-14 -6.88134e-14 -6.88134e-14 5.61762e-14 5.61762e-14 -4.37056e-14 -4.37056e-14 3.19109e-14 3.19109e-14 -2.11884e-14 -2.11884e-14 1.18153e-14 1.18153e-14 -3.95256e-15 -3.95256e-15 -2.34548e-15 -2.34548e-15 7.11586e-15 7.11586e-15 -1.04688e-14 -1.04688e-14 1.2568e-14 1.2568e-14 -1.36108e-14 -1.36108e-14 1.381e-14 1.381e-14 -1.3378e-14 -1.3378e-14 1.25141e-14 1.25141e-14 -1.13948e-14 -1.13948e-14 1.01678e-14 1.01678e-14 -8.94877e-15 -8.94877e-15 7.82123e-15 7.82123e-15 -6.83849e-15 -6.83849e-15 6.02716e-15 6.02716e-15 -5.39185e-15 -5.39185e-15 4.92037e-15 4.92037e-15 -4.58894e-15 -4.58894e-15 4.36717e-15 4.36717e-15 -4.22232e-15 -4.22232e-15 4.12278e-15 4.12278e-15 -4.04071e-15 -4.04071e-15 3.95369e-15 3.95369e-15 -3.84561e-15 -3.84561e-15 3.70678e-15 3.70678e-15 -3.53345e-15 -3.53345e-15 3.32696e-15 3.32696e-15 -3.09256e-15 -3.09256e-15 2.83814e-15 2.83814e-15 -2.57301e-15 -2.57301e-15 2.30674e-15 2.30674e-15 -2.04818e-15 -2.04818e-15 1.8048e-15 1.8048e-15 -1.58219e-15 -1.58219e-15 1.38386e-15 1.38386e-15 -1.2112e-15 -1.2112e-15 1.06372e-15 1.06372e-15 -9.39314e-16 -9.39314e-16 8.34699e-16 8.34699e-16 -7.45849e-16 -7.45849e-16 6.6844e-16 6.6844e-16 -5.98257e-16 -5.98257e-16 5.31527e-16 5.31527e-16 -4.65181e-16 -4.65181e-16 3.97017e-16 3.97017e-16 -3.25771e-16 -3.25771e-16 2.51111e-16 2.51111e-16 -1.73546e-16 -1.73546e-16 9.42935e-17 9.42935e-17 -1.50981e-17 -1.50981e-17 -6.19673e-17 -6.19673e-17 1.34701e-16 1.34701e-16 -2.00962e-16 -2.00962e-16 2.58836e-16 2.58836e-16 -3.06764e-16 -3.06764e-16 3.43641e-16 3.43641e-16 -3.68863e-16 -3.68863e-16 3.82346e-16 3.82346e-16 -3.84503e-16 -3.84503e-16 3.76192e-16 3.76192e-16 -3.58642e-16 -3.58642e-16 3.33364e-16 3.33364e-16 -3.02049e-16 -3.02049e-16 2.66474e-16 2.66474e-16 -2.28403e-16 -2.28403e-16 1.89508e-16 1.89508e-16 -1.51294e-16 -1.51294e-16 1.15051e-16 1.15051e-16 -8.18168e-17 -8.18168e-17 5.23579e-17 5.23579e-17 -2.71701e-17 -2.71701e-17 6.49031e-18 6.49031e-18 9.67814e-18 9.67814e-18 -2.15325e-17 -2.15325e-17 2.94311e-17 2.94311e-17 -3.38514e-17 -3.38514e-17 3.53477e-17 3.53477e-17 -3.45115e-17 -3.45115e-17 3.19358e-17 3.19358e-17 -2.81844e-17 -2.81844e-17 2.37686e-17 2.37686e-17 -1.91292e-17 -1.91292e-17 1.46266e-17 1.46266e-17 -1.05357e-17 -1.05357e-17 7.04697e-18 7.04697e-18 -4.27189e-18 -4.27189e-18 2.25167e-18 2.25167e-18 -9.68508e-19 -9.68508e-19 3.58135e-19 3.58135e-19 -3.22769e-19 -3.22769e-19 7.43671e-19 7.43671e-19 -1.49264e-18 -1.49264e-18 2.44196e-18 2.44196e-18 -3.4725e-18 -3.4725e-18 4.47987e-18 4.47987e-18 -5.37843e-18 -5.37843e-18 6.10359e-18 6.10359e-18 -6.61226e-18 -6.61226e-18 6.88201e-18 6.88201e-18 -6.90904e-18 -6.90904e-18 6.70538e-18 6.70538e-18 -6.29561e-18 -6.29561e-18 5.7134e-18 5.7134e-18 -4.99806e-18 -4.99806e-18 4.19138e-18 4.19138e-18 -3.33478e-18 -3.33478e-18 2.4671e-18 2.4671e-18 -1.62277e-18 -1.62277e-18 8.30623e-19 8.30623e-19 -1.13209e-19 -1.13209e-19 -5.13403e-19 -5.13403e-19 1.03945e-18 1.03945e-18 -1.46097e-18 -1.46097e-18 1.77905e-18 1.77905e-18 -1.99895e-18 -1.99895e-18 2.12916e-18 2.12916e-18 -2.18042e-18 -2.18042e-18 2.16483e-18 2.16483e-18 -2.09504e-18 -2.09504e-18 1.98353e-18 1.98353e-18 -1.84211e-18 -1.84211e-18 1.68148e-18 1.68148e-18 -1.51092e-18 -1.51092e-18 1.3382e-18 1.3382e-18 -1.16951e-18 -1.16951e-18 1.0095e-18 1.0095e-18 -8.61383e-19 -8.61383e-19 7.27138e-19 7.27138e-19 -6.07658e-19 -6.07658e-19 5.02972e-19 5.02972e-19 -4.12441e-19 -4.12441e-19 3.34951e-19 3.34951e-19 -2.69078e-19 -2.69078e-19 2.13239e-19 2.13239e-19 -1.65809e-19 -1.65809e-19 1.25219e-19 1.25219e-19 -9.00217e-20 -9.00217e-20 5.89425e-20 5.89425e-20 -3.09036e-20 -3.09036e-20 5.03757e-21 5.03757e-21 1.93143e-20 1.93143e-20 -4.26123e-20 -4.26123e-20 6.51359e-20 6.51359e-20 -8.70057e-20 -8.70057e-20 1.08207e-19 1.08207e-19 -1.28618e-19 -1.28618e-19 1.48032e-19 1.48032e-19 -1.66184e-19 -1.66184e-19 1.82776e-19 1.82776e-19 -1.97494e-19 -1.97494e-19 2.10036e-19 2.10036e-19 -2.20121e-19 -2.20121e-19 2.27513e-19 2.27513e-19 -2.32026e-19 -2.32026e-19 2.33542e-19 2.33542e-19 -2.32011e-19 -2.32011e-19 2.27462e-19 2.27462e-19 -2.19999e-19 -2.19999e-19 2.09802e-19 2.09802e-19 -1.97122e-19 -1.97122e-19 1.82273e-19 1.82273e-19 -1.65622e-19 -1.65622e-19 1.47577e-19 1.47577e-19 -1.28575e-19 -1.28575e-19 1.09065e-19 1.09065e-19 -8.94969e-20 -8.94969e-20 7.03039e-20 7.03039e-20 -5.18913e-20 -5.18913e-20 3.4623e-20 3.4623e-20 -1.88123e-20 -1.88123e-20 4.71348e-21 4.71348e-21 7.48345e-21 7.48345e-21 -1.76557e-20 -1.76557e-20 2.5748e-20 2.5748e-20 -3.17698e-20 -3.17698e-20 3.57915e-20 3.57915e-20 -3.79371e-20 -3.79371e-20 3.83767e-20 3.83767e-20 -3.73168e-20 -3.73168e-20 3.49903e-20 3.49903e-20 -3.16466e-20 -3.16466e-20 2.75411e-20 2.75411e-20 -2.29258e-20 -2.29258e-20 1.80412e-20 1.80412e-20 -1.3108e-20 -1.3108e-20 8.32221e-21 8.32221e-21 -3.84991e-21 -3.84991e-21 -1.75259e-22 -1.75259e-22 3.65353e-21 3.65353e-21 -6.51888e-21 -6.51888e-21 8.73756e-21 8.73756e-21 -1.03056e-20 -1.03056e-20 1.12454e-20 1.12454e-20 -1.16016e-20 -1.16016e-20 1.14364e-20 1.14364e-20 -1.08251e-20 -1.08251e-20 9.85129e-21 9.85129e-21 -8.60245e-21 -8.60245e-21 7.16577e-21 7.16577e-21 -5.62465e-21 -5.62465e-21 4.05571e-21 4.05571e-21 -2.52654e-21 -2.52654e-21 1.09398e-21 1.09398e-21 1.96796e-22 1.96796e-22 -1.31267e-21 -1.31267e-21 2.23236e-21 2.23236e-21 -2.94572e-21 -2.94572e-21 3.45271e-21 3.45271e-21 -3.76201e-21 -3.76201e-21 3.88946e-21 3.88946e-21 -3.85641e-21 -3.85641e-21 3.68805e-21 3.68805e-21 -3.41176e-21 -3.41176e-21 3.0557e-21 3.0557e-21 -2.64739e-21 -2.64739e-21 2.21268e-21 2.21268e-21 -1.77482e-21 -1.77482e-21 1.35381e-21 1.35381e-21 -9.66007e-22 -9.66007e-22 6.23919e-22 6.23919e-22 -3.36187e-22 -3.36187e-22 1.07768e-22 1.07768e-22 5.97644e-23 5.97644e-23 -1.67803e-22 -1.67803e-22 2.20227e-22 2.20227e-22 -2.22872e-22 -2.22872e-22 1.82995e-22 1.82995e-22 -1.08753e-22 -1.08753e-22 8.71147e-24 8.71147e-24 1.0859e-22 1.0859e-22 -2.35012e-22 -2.35012e-22 3.63113e-22 3.63113e-22 -4.8638e-22 -4.8638e-22 5.99383e-22 5.99383e-22 -6.97854e-22 -6.97854e-22 7.78717e-22 7.78717e-22 -8.40043e-22 -8.40043e-22 8.80982e-22 8.80982e-22 -9.0164e-22 -9.0164e-22 9.02946e-22 9.02946e-22 -8.86494e-22 -8.86494e-22 8.54385e-22 8.54385e-22 -8.09068e-22 -8.09068e-22 7.53188e-22 7.53188e-22 -6.89455e-22 -6.89455e-22 6.2052e-22 6.2052e-22 -5.48878e-22 -5.48878e-22 4.76795e-22 4.76795e-22 -4.06246e-22 -4.06246e-22 3.38884e-22 3.38884e-22 -2.76023e-22 -2.76023e-22 2.18635e-22 2.18635e-22 -1.67369e-22 -1.67369e-22 1.22574e-22 1.22574e-22 -8.43295e-23 -8.43295e-23 5.24912e-23 5.24912e-23 -2.67279e-23 -2.67279e-23 6.56628e-24 6.56628e-24 8.56783e-24 8.56783e-24 -1.93107e-23 -1.93107e-23 2.63258e-23 2.63258e-23 -3.02745e-23 -3.02745e-23 3.17907e-23 3.17907e-23 -3.14622e-23 -3.14622e-23 2.98165e-23 2.98165e-23 -2.73124e-23 -2.73124e-23 2.43349e-23 2.43349e-23 -2.11955e-23 -2.11955e-23 1.81342e-23 1.81342e-23 -1.5325e-23 -1.5325e-23 1.28831e-23 1.28831e-23 -1.08728e-23 -1.08728e-23 9.31605e-24 9.31605e-24 -8.20192e-24 -8.20192e-24 7.49451e-24 7.49451e-24 -7.141e-24 -7.141e-24 7.07864e-24 7.07864e-24 -7.24054e-24 -7.24054e-24 7.56056e-24 7.56056e-24 -7.97694e-24 -7.97694e-24 8.43497e-24 8.43497e-24 -8.88859e-24 -8.88859e-24 9.30125e-24 9.30125e-24 -9.64598e-24 -9.64598e-24 9.90491e-24 9.90491e-24 -1.00684e-23 -1.00684e-23 1.01339e-23 1.01339e-23 -1.01045e-23 -1.01045e-23 9.98762e-24 9.98762e-24 -9.79379e-24 -9.79379e-24 9.53521e-24 9.53521e-24 -9.2248e-24 -9.2248e-24 8.87524e-24 8.87524e-24 -8.49833e-24 -8.49833e-24 8.10447e-24 8.10447e-24 -7.70237e-24 -7.70237e-24 7.29887e-24 7.29887e-24 -6.89902e-24 -6.89902e-24 6.50616e-24 6.50616e-24 -6.12211e-24 -6.12211e-24 5.74749e-24 5.74749e-24 -5.38197e-24 -5.38197e-24 5.02459e-24 5.02459e-24 -4.67405e-24 -4.67405e-24 4.32893e-24 4.32893e-24 -3.98795e-24 -3.98795e-24 3.65012e-24 3.65012e-24 -3.31486e-24 -3.31486e-24 2.98204e-24 2.98204e-24 -2.65208e-24 -2.65208e-24 2.32585e-24 2.32585e-24 -2.00468e-24 -2.00468e-24 1.69024e-24 1.69024e-24 -1.38448e-24 -1.38448e-24 1.08953e-24 1.08953e-24 -8.0756e-25 -8.0756e-25 5.40698e-25 5.40698e-25 -2.90937e-25 -2.90937e-25 6.00505e-26 6.00505e-26 1.5048e-25 1.5048e-25 -3.3951e-25 -3.3951e-25 5.06264e-25 5.06264e-25 -6.50357e-25 -6.50357e-25 7.71784e-25 7.71784e-25 -8.70915e-25 -8.70915e-25 9.48461e-25 9.48461e-25 -1.00544e-24 -1.00544e-24 1.04313e-24 1.04313e-24 -1.06304e-24 -1.06304e-24 1.06681e-24 1.06681e-24 -1.05621e-24 -1.05621e-24 1.03308e-24 1.03308e-24 -9.9927e-25 -9.9927e-25 9.56598e-25 9.56598e-25 -9.0683e-25 -9.0683e-25 8.51639e-25 8.51639e-25 -7.9258e-25 -7.9258e-25 7.31079e-25 7.31079e-25 -6.68414e-25 -6.68414e-25 6.05711e-25 6.05711e-25 -5.43941e-25 -5.43941e-25 4.83923e-25 4.83923e-25 -4.26327e-25 -4.26327e-25 3.71685e-25 3.71685e-25 -3.20397e-25 -3.20397e-25 2.7275e-25 2.7275e-25 -2.2892e-25 -2.2892e-25 1.88995e-25 1.88995e-25 -1.52981e-25 -1.52981e-25 1.20817e-25 1.20817e-25 -9.2387e-26 -9.2387e-26 6.75297e-26 6.75297e-26 -4.605e-26 -4.605e-26 2.77271e-26 2.77271e-26 -1.23227e-26 -1.23227e-26 -4.11958e-28 -4.11958e-28 1.073e-26 1.073e-26 -1.88842e-26 -1.88842e-26 2.51224e-26 2.51224e-26 -2.96841e-26 -2.96841e-26 3.27978e-26 3.27978e-26 -3.46789e-26 -3.46789e-26 3.55279e-26 3.55279e-26 -3.55293e-26 -3.55293e-26 3.48511e-26 3.48511e-26 -3.36442e-26 -3.36442e-26 3.20425e-26 3.20425e-26 -3.0163e-26 -3.0163e-26 2.81064e-26 2.81064e-26 -2.59581e-26 -2.59581e-26 2.37882e-26 2.37882e-26 -2.16535e-26 -2.16535e-26 1.95978e-26 1.95978e-26 -1.76538e-26 -1.76538e-26 1.58438e-26 1.58438e-26 -1.41812e-26 -1.41812e-26 1.2672e-26 1.2672e-26 -1.13159e-26 -1.13159e-26 1.01074e-26 1.01074e-26 -9.03718e-27 -9.03718e-27 8.09329e-27 8.09329e-27 -7.26186e-27 -7.26186e-27 6.52818e-27 6.52818e-27 -5.8774e-27 -5.8774e-27 5.2952e-27 5.2952e-27 -4.7683e-27 -4.7683e-27 4.28481e-27 4.28481e-27 -3.83458e-27 -3.83458e-27 3.40928e-27 3.40928e-27 -3.00249e-27 -3.00249e-27 2.60969e-27 2.60969e-27 -2.22809e-27 -2.22809e-27 1.85652e-27 1.85652e-27 -1.4952e-27 -1.4952e-27 1.14544e-27 1.14544e-27 -8.0946e-28 -8.0946e-28 4.9005e-28 4.9005e-28 -1.90339e-28 -1.90339e-28 -8.6463e-29 -8.6463e-29 3.37286e-28 3.37286e-28 -5.59392e-28 -5.59392e-28 7.50528e-28 7.50528e-28 -9