# vtk DataFile Version 3.0
#This file was generated by the deal.II library on 2020/8/11 at 22:17:02
ASCII
DATASET UNSTRUCTURED_GRID

POINTS 4096 double
0.5 0 0
0.743896 0 0
0.743896 0 0
0.987793 0 0
0.987793 0 0
1.23169 0 0
1.23169 0 0
1.47559 0 0
1.47559 0 0
1.71948 0 0
1.71948 0 0
1.96338 0 0
1.96338 0 0
2.20728 0 0
2.20728 0 0
2.45117 0 0
2.45117 0 0
2.69507 0 0
2.69507 0 0
2.93896 0 0
2.93896 0 0
3.18286 0 0
3.18286 0 0
3.42676 0 0
3.42676 0 0
3.67065 0 0
3.67065 0 0
3.91455 0 0
3.91455 0 0
4.15845 0 0
4.15845 0 0
4.40234 0 0
4.40234 0 0
4.64624 0 0
4.64624 0 0
4.89014 0 0
4.89014 0 0
5.13403 0 0
5.13403 0 0
5.37793 0 0
5.37793 0 0
5.62183 0 0
5.62183 0 0
5.86572 0 0
5.86572 0 0
6.10962 0 0
6.10962 0 0
6.35352 0 0
6.35352 0 0
6.59741 0 0
6.59741 0 0
6.84131 0 0
6.84131 0 0
7.08521 0 0
7.08521 0 0
7.3291 0 0
7.3291 0 0
7.573 0 0
7.573 0 0
7.81689 0 0
7.81689 0 0
8.06079 0 0
8.06079 0 0
8.30469 0 0
8.30469 0 0
8.54858 0 0
8.54858 0 0
8.79248 0 0
8.79248 0 0
9.03638 0 0
9.03638 0 0
9.28027 0 0
9.28027 0 0
9.52417 0 0
9.52417 0 0
9.76807 0 0
9.76807 0 0
10.012 0 0
10.012 0 0
10.2559 0 0
10.2559 0 0
10.4998 0 0
10.4998 0 0
10.7437 0 0
10.7437 0 0
10.9875 0 0
10.9875 0 0
11.2314 0 0
11.2314 0 0
11.4753 0 0
11.4753 0 0
11.7192 0 0
11.7192 0 0
11.9631 0 0
11.9631 0 0
12.207 0 0
12.207 0 0
12.4509 0 0
12.4509 0 0
12.6948 0 0
12.6948 0 0
12.9387 0 0
12.9387 0 0
13.1826 0 0
13.1826 0 0
13.4265 0 0
13.4265 0 0
13.6704 0 0
13.6704 0 0
13.9143 0 0
13.9143 0 0
14.1582 0 0
14.1582 0 0
14.4021 0 0
14.4021 0 0
14.646 0 0
14.646 0 0
14.8899 0 0
14.8899 0 0
15.1338 0 0
15.1338 0 0
15.3777 0 0
15.3777 0 0
15.6216 0 0
15.6216 0 0
15.8655 0 0
15.8655 0 0
16.1094 0 0
16.1094 0 0
16.3533 0 0
16.3533 0 0
16.5972 0 0
16.5972 0 0
16.8411 0 0
16.8411 0 0
17.085 0 0
17.085 0 0
17.3289 0 0
17.3289 0 0
17.5728 0 0
17.5728 0 0
17.8167 0 0
17.8167 0 0
18.0605 0 0
18.0605 0 0
18.3044 0 0
18.3044 0 0
18.5483 0 0
18.5483 0 0
18.7922 0 0
18.7922 0 0
19.0361 0 0
19.0361 0 0
19.28 0 0
19.28 0 0
19.5239 0 0
19.5239 0 0
19.7678 0 0
19.7678 0 0
20.0117 0 0
20.0117 0 0
20.2556 0 0
20.2556 0 0
20.4995 0 0
20.4995 0 0
20.7434 0 0
20.7434 0 0
20.9873 0 0
20.9873 0 0
21.2312 0 0
21.2312 0 0
21.4751 0 0
21.4751 0 0
21.719 0 0
21.719 0 0
21.9629 0 0
21.9629 0 0
22.2068 0 0
22.2068 0 0
22.4507 0 0
22.4507 0 0
22.6946 0 0
22.6946 0 0
22.9385 0 0
22.9385 0 0
23.1824 0 0
23.1824 0 0
23.4263 0 0
23.4263 0 0
23.6702 0 0
23.6702 0 0
23.9141 0 0
23.9141 0 0
24.158 0 0
24.158 0 0
24.4019 0 0
24.4019 0 0
24.6458 0 0
24.6458 0 0
24.8896 0 0
24.8896 0 0
25.1335 0 0
25.1335 0 0
25.3774 0 0
25.3774 0 0
25.6213 0 0
25.6213 0 0
25.8652 0 0
25.8652 0 0
26.1091 0 0
26.1091 0 0
26.353 0 0
26.353 0 0
26.5969 0 0
26.5969 0 0
26.8408 0 0
26.8408 0 0
27.0847 0 0
27.0847 0 0
27.3286 0 0
27.3286 0 0
27.5725 0 0
27.5725 0 0
27.8164 0 0
27.8164 0 0
28.0603 0 0
28.0603 0 0
28.3042 0 0
28.3042 0 0
28.5481 0 0
28.5481 0 0
28.792 0 0
28.792 0 0
29.0359 0 0
29.0359 0 0
29.2798 0 0
29.2798 0 0
29.5237 0 0
29.5237 0 0
29.7676 0 0
29.7676 0 0
30.0115 0 0
30.0115 0 0
30.2554 0 0
30.2554 0 0
30.4993 0 0
30.4993 0 0
30.7432 0 0
30.7432 0 0
30.9871 0 0
30.9871 0 0
31.231 0 0
31.231 0 0
31.4749 0 0
31.4749 0 0
31.7188 0 0
31.7188 0 0
31.9626 0 0
31.9626 0 0
32.2065 0 0
32.2065 0 0
32.4504 0 0
32.4504 0 0
32.6943 0 0
32.6943 0 0
32.9382 0 0
32.9382 0 0
33.1821 0 0
33.1821 0 0
33.426 0 0
33.426 0 0
33.6699 0 0
33.6699 0 0
33.9138 0 0
33.9138 0 0
34.1577 0 0
34.1577 0 0
34.4016 0 0
34.4016 0 0
34.6455 0 0
34.6455 0 0
34.8894 0 0
34.8894 0 0
35.1333 0 0
35.1333 0 0
35.3772 0 0
35.3772 0 0
35.6211 0 0
35.6211 0 0
35.865 0 0
35.865 0 0
36.1089 0 0
36.1089 0 0
36.3528 0 0
36.3528 0 0
36.5967 0 0
36.5967 0 0
36.8406 0 0
36.8406 0 0
37.0845 0 0
37.0845 0 0
37.3284 0 0
37.3284 0 0
37.5723 0 0
37.5723 0 0
37.8162 0 0
37.8162 0 0
38.0601 0 0
38.0601 0 0
38.304 0 0
38.304 0 0
38.5479 0 0
38.5479 0 0
38.7917 0 0
38.7917 0 0
39.0356 0 0
39.0356 0 0
39.2795 0 0
39.2795 0 0
39.5234 0 0
39.5234 0 0
39.7673 0 0
39.7673 0 0
40.0112 0 0
40.0112 0 0
40.2551 0 0
40.2551 0 0
40.499 0 0
40.499 0 0
40.7429 0 0
40.7429 0 0
40.9868 0 0
40.9868 0 0
41.2307 0 0
41.2307 0 0
41.4746 0 0
41.4746 0 0
41.7185 0 0
41.7185 0 0
41.9624 0 0
41.9624 0 0
42.2063 0 0
42.2063 0 0
42.4502 0 0
42.4502 0 0
42.6941 0 0
42.6941 0 0
42.938 0 0
42.938 0 0
43.1819 0 0
43.1819 0 0
43.4258 0 0
43.4258 0 0
43.6697 0 0
43.6697 0 0
43.9136 0 0
43.9136 0 0
44.1575 0 0
44.1575 0 0
44.4014 0 0
44.4014 0 0
44.6453 0 0
44.6453 0 0
44.8892 0 0
44.8892 0 0
45.1331 0 0
45.1331 0 0
45.377 0 0
45.377 0 0
45.6208 0 0
45.6208 0 0
45.8647 0 0
45.8647 0 0
46.1086 0 0
46.1086 0 0
46.3525 0 0
46.3525 0 0
46.5964 0 0
46.5964 0 0
46.8403 0 0
46.8403 0 0
47.0842 0 0
47.0842 0 0
47.3281 0 0
47.3281 0 0
47.572 0 0
47.572 0 0
47.8159 0 0
47.8159 0 0
48.0598 0 0
48.0598 0 0
48.3037 0 0
48.3037 0 0
48.5476 0 0
48.5476 0 0
48.7915 0 0
48.7915 0 0
49.0354 0 0
49.0354 0 0
49.2793 0 0
49.2793 0 0
49.5232 0 0
49.5232 0 0
49.7671 0 0
49.7671 0 0
50.011 0 0
50.011 0 0
50.2549 0 0
50.2549 0 0
50.4988 0 0
50.4988 0 0
50.7427 0 0
50.7427 0 0
50.9866 0 0
50.9866 0 0
51.2305 0 0
51.2305 0 0
51.4744 0 0
51.4744 0 0
51.7183 0 0
51.7183 0 0
51.9622 0 0
51.9622 0 0
52.2061 0 0
52.2061 0 0
52.45 0 0
52.45 0 0
52.6938 0 0
52.6938 0 0
52.9377 0 0
52.9377 0 0
53.1816 0 0
53.1816 0 0
53.4255 0 0
53.4255 0 0
53.6694 0 0
53.6694 0 0
53.9133 0 0
53.9133 0 0
54.1572 0 0
54.1572 0 0
54.4011 0 0
54.4011 0 0
54.645 0 0
54.645 0 0
54.8889 0 0
54.8889 0 0
55.1328 0 0
55.1328 0 0
55.3767 0 0
55.3767 0 0
55.6206 0 0
55.6206 0 0
55.8645 0 0
55.8645 0 0
56.1084 0 0
56.1084 0 0
56.3523 0 0
56.3523 0 0
56.5962 0 0
56.5962 0 0
56.8401 0 0
56.8401 0 0
57.084 0 0
57.084 0 0
57.3279 0 0
57.3279 0 0
57.5718 0 0
57.5718 0 0
57.8157 0 0
57.8157 0 0
58.0596 0 0
58.0596 0 0
58.3035 0 0
58.3035 0 0
58.5474 0 0
58.5474 0 0
58.7913 0 0
58.7913 0 0
59.0352 0 0
59.0352 0 0
59.2791 0 0
59.2791 0 0
59.5229 0 0
59.5229 0 0
59.7668 0 0
59.7668 0 0
60.0107 0 0
60.0107 0 0
60.2546 0 0
60.2546 0 0
60.4985 0 0
60.4985 0 0
60.7424 0 0
60.7424 0 0
60.9863 0 0
60.9863 0 0
61.2302 0 0
61.2302 0 0
61.4741 0 0
61.4741 0 0
61.718 0 0
61.718 0 0
61.9619 0 0
61.9619 0 0
62.2058 0 0
62.2058 0 0
62.4497 0 0
62.4497 0 0
62.6936 0 0
62.6936 0 0
62.9375 0 0
62.9375 0 0
63.1814 0 0
63.1814 0 0
63.4253 0 0
63.4253 0 0
63.6692 0 0
63.6692 0 0
63.9131 0 0
63.9131 0 0
64.157 0 0
64.157 0 0
64.4009 0 0
64.4009 0 0
64.6448 0 0
64.6448 0 0
64.8887 0 0
64.8887 0 0
65.1326 0 0
65.1326 0 0
65.3765 0 0
65.3765 0 0
65.6204 0 0
65.6204 0 0
65.8643 0 0
65.8643 0 0
66.1082 0 0
66.1082 0 0
66.3521 0 0
66.3521 0 0
66.5959 0 0
66.5959 0 0
66.8398 0 0
66.8398 0 0
67.0837 0 0
67.0837 0 0
67.3276 0 0
67.3276 0 0
67.5715 0 0
67.5715 0 0
67.8154 0 0
67.8154 0 0
68.0593 0 0
68.0593 0 0
68.3032 0 0
68.3032 0 0
68.5471 0 0
68.5471 0 0
68.791 0 0
68.791 0 0
69.0349 0 0
69.0349 0 0
69.2788 0 0
69.2788 0 0
69.5227 0 0
69.5227 0 0
69.7666 0 0
69.7666 0 0
70.0105 0 0
70.0105 0 0
70.2544 0 0
70.2544 0 0
70.4983 0 0
70.4983 0 0
70.7422 0 0
70.7422 0 0
70.9861 0 0
70.9861 0 0
71.23 0 0
71.23 0 0
71.4739 0 0
71.4739 0 0
71.7178 0 0
71.7178 0 0
71.9617 0 0
71.9617 0 0
72.2056 0 0
72.2056 0 0
72.4495 0 0
72.4495 0 0
72.6934 0 0
72.6934 0 0
72.9373 0 0
72.9373 0 0
73.1812 0 0
73.1812 0 0
73.425 0 0
73.425 0 0
73.6689 0 0
73.6689 0 0
73.9128 0 0
73.9128 0 0
74.1567 0 0
74.1567 0 0
74.4006 0 0
74.4006 0 0
74.6445 0 0
74.6445 0 0
74.8884 0 0
74.8884 0 0
75.1323 0 0
75.1323 0 0
75.3762 0 0
75.3762 0 0
75.6201 0 0
75.6201 0 0
75.864 0 0
75.864 0 0
76.1079 0 0
76.1079 0 0
76.3518 0 0
76.3518 0 0
76.5957 0 0
76.5957 0 0
76.8396 0 0
76.8396 0 0
77.0835 0 0
77.0835 0 0
77.3274 0 0
77.3274 0 0
77.5713 0 0
77.5713 0 0
77.8152 0 0
77.8152 0 0
78.0591 0 0
78.0591 0 0
78.303 0 0
78.303 0 0
78.5469 0 0
78.5469 0 0
78.7908 0 0
78.7908 0 0
79.0347 0 0
79.0347 0 0
79.2786 0 0
79.2786 0 0
79.5225 0 0
79.5225 0 0
79.7664 0 0
79.7664 0 0
80.0103 0 0
80.0103 0 0
80.2542 0 0
80.2542 0 0
80.498 0 0
80.498 0 0
80.7419 0 0
80.7419 0 0
80.9858 0 0
80.9858 0 0
81.2297 0 0
81.2297 0 0
81.4736 0 0
81.4736 0 0
81.7175 0 0
81.7175 0 0
81.9614 0 0
81.9614 0 0
82.2053 0 0
82.2053 0 0
82.4492 0 0
82.4492 0 0
82.6931 0 0
82.6931 0 0
82.937 0 0
82.937 0 0
83.1809 0 0
83.1809 0 0
83.4248 0 0
83.4248 0 0
83.6687 0 0
83.6687 0 0
83.9126 0 0
83.9126 0 0
84.1565 0 0
84.1565 0 0
84.4004 0 0
84.4004 0 0
84.6443 0 0
84.6443 0 0
84.8882 0 0
84.8882 0 0
85.1321 0 0
85.1321 0 0
85.376 0 0
85.376 0 0
85.6199 0 0
85.6199 0 0
85.8638 0 0
85.8638 0 0
86.1077 0 0
86.1077 0 0
86.3516 0 0
86.3516 0 0
86.5955 0 0
86.5955 0 0
86.8394 0 0
86.8394 0 0
87.0833 0 0
87.0833 0 0
87.3271 0 0
87.3271 0 0
87.571 0 0
87.571 0 0
87.8149 0 0
87.8149 0 0
88.0588 0 0
88.0588 0 0
88.3027 0 0
88.3027 0 0
88.5466 0 0
88.5466 0 0
88.7905 0 0
88.7905 0 0
89.0344 0 0
89.0344 0 0
89.2783 0 0
89.2783 0 0
89.5222 0 0
89.5222 0 0
89.7661 0 0
89.7661 0 0
90.01 0 0
90.01 0 0
90.2539 0 0
90.2539 0 0
90.4978 0 0
90.4978 0 0
90.7417 0 0
90.7417 0 0
90.9856 0 0
90.9856 0 0
91.2295 0 0
91.2295 0 0
91.4734 0 0
91.4734 0 0
91.7173 0 0
91.7173 0 0
91.9612 0 0
91.9612 0 0
92.2051 0 0
92.2051 0 0
92.449 0 0
92.449 0 0
92.6929 0 0
92.6929 0 0
92.9368 0 0
92.9368 0 0
93.1807 0 0
93.1807 0 0
93.4246 0 0
93.4246 0 0
93.6685 0 0
93.6685 0 0
93.9124 0 0
93.9124 0 0
94.1562 0 0
94.1562 0 0
94.4001 0 0
94.4001 0 0
94.644 0 0
94.644 0 0
94.8879 0 0
94.8879 0 0
95.1318 0 0
95.1318 0 0
95.3757 0 0
95.3757 0 0
95.6196 0 0
95.6196 0 0
95.8635 0 0
95.8635 0 0
96.1074 0 0
96.1074 0 0
96.3513 0 0
96.3513 0 0
96.5952 0 0
96.5952 0 0
96.8391 0 0
96.8391 0 0
97.083 0 0
97.083 0 0
97.3269 0 0
97.3269 0 0
97.5708 0 0
97.5708 0 0
97.8147 0 0
97.8147 0 0
98.0586 0 0
98.0586 0 0
98.3025 0 0
98.3025 0 0
98.5464 0 0
98.5464 0 0
98.7903 0 0
98.7903 0 0
99.0342 0 0
99.0342 0 0
99.2781 0 0
99.2781 0 0
99.522 0 0
99.522 0 0
99.7659 0 0
99.7659 0 0
100.01 0 0
100.01 0 0
100.254 0 0
100.254 0 0
100.498 0 0
100.498 0 0
100.741 0 0
100.741 0 0
100.985 0 0
100.985 0 0
101.229 0 0
101.229 0 0
101.473 0 0
[...]
POINT_DATA 4096
SCALARS solution_0 double 1
LOOKUP_TABLE default
0.00663752 -12.2592 -12.2592 -4.18583 -4.18583 -2.3961 -2.3961 -1.52742 -1.52742 -0.995883 -0.995883 -0.621962 -0.621962 -0.358877 -0.358877 -0.166503 -0.166503 -0.00560577 -0.00560577 0.0955662 0.0955662 0.174089 0.174089 0.183224 0.183224 0.155458 0.155458 0.0997403 0.0997403 -0.0171876 -0.0171876 -0.0748149 -0.0748149 -0.0699132 -0.0699132 0.0216154 0.0216154 0.137858 0.137858 0.216095 0.216095 0.259439 0.259439 0.339978 0.339978 0.591719 0.591719 0.994874 0.994874 1.51558 1.51558 2.09166 2.09166 2.84068 2.84068 3.81785 3.81785 4.89187 4.89187 5.92372 5.92372 6.82569 6.82569 7.58274 7.58274 8.03002 8.03002 8.04835 8.04835 7.62142 7.62142 6.88681 6.88681 5.90462 5.90462 4.73288 4.73288 3.56941 3.56941 2.56022 2.56022 1.72448 1.72448 1.04992 1.04992 0.61607 0.61607 0.346715 0.346715 0.168085 0.168085 0.068949 0.068949 0.0365634 0.0365634 0.0211479 0.0211479 -0.00459607 -0.00459607 0.00151378 0.00151378 0.00754661 0.00754661 -0.0036845 -0.0036845 -0.00420153 -0.00420153 0.00671659 0.00671659 -0.00124747 -0.00124747 -0.00517215 -0.00517215 0.00548913 0.00548913 -0.00021207 -0.00021207 -0.00438603 -0.00438603 0.00376735 0.00376735 0.000559869 0.000559869 -0.00363733 -0.00363733 0.00257888 0.00257888 0.000983189 0.000983189 -0.00326461 -0.00326461 0.00228868 0.00228868 0.000586295 0.000586295 -0.0024917 -0.0024917 0.0018984 0.0018984 0.000261316 0.000261316 -0.00184403 -0.00184403 0.00155944 0.00155944 8.10828e-05 8.10828e-05 -0.00151186 -0.00151186 0.00159745 0.00159745 -0.000487438 -0.000487438 -0.000729382 -0.000729382 0.00105978 0.00105978 -0.000376138 -0.000376138 -0.000629964 -0.000629964 0.00111881 0.00111881 -0.000767969 -0.000767969 -6.82475e-05 -6.82475e-05 0.000729613 0.000729613 -0.000780969 -0.000780969 0.000289604 0.000289604 0.000302729 0.000302729 -0.000549366 -0.000549366 0.000309561 0.000309561 0.000201637 0.000201637 -0.000611277 -0.000611277 0.000658325 0.000658325 -0.000346143 -0.000346143 -9.92167e-05 -9.92167e-05 0.000403134 0.000403134 -0.000416288 -0.000416288 0.000182084 0.000182084 0.000122463 0.000122463 -0.000312551 -0.000312551 0.000301389 0.000301389 -0.000129274 -0.000129274 -8.43139e-05 -8.43139e-05 0.000222085 0.000222085 -0.000231268 -0.000231268 0.000137049 0.000137049 -1.12177e-05 -1.12177e-05 -7.63694e-05 -7.63694e-05 9.33391e-05 9.33391e-05 -5.16761e-05 -5.16761e-05 -1.03783e-05 -1.03783e-05 5.52917e-05 5.52917e-05 -6.54267e-05 -6.54267e-05 4.63705e-05 4.63705e-05 -1.6993e-05 -1.6993e-05 -4.73372e-06 -4.73372e-06 1.12673e-05 1.12673e-05 -6.4259e-06 -6.4259e-06 -4.33456e-07 -4.33456e-07 1.85538e-06 1.85538e-06 3.39384e-06 3.39384e-06 -1.09244e-05 -1.09244e-05 1.47793e-05 1.47793e-05 -1.17919e-05 -1.17919e-05 3.53715e-06 3.53715e-06 4.93847e-06 4.93847e-06 -8.42399e-06 -8.42399e-06 4.71608e-06 4.71608e-06 4.14825e-06 4.14825e-06 -1.31074e-05 -1.31074e-05 1.68699e-05 1.68699e-05 -1.26865e-05 -1.26865e-05 1.68604e-06 1.68604e-06 1.17637e-05 1.17637e-05 -2.21871e-05 -2.21871e-05 2.5485e-05 2.5485e-05 -2.06033e-05 -2.06033e-05 9.7323e-06 9.7323e-06 2.87976e-06 2.87976e-06 -1.28222e-05 -1.28222e-05 1.72394e-05 1.72394e-05 -1.56905e-05 -1.56905e-05 9.93299e-06 9.93299e-06 -2.88742e-06 -2.88742e-06 -2.66623e-06 -2.66623e-06 5.10094e-06 5.10094e-06 -4.31859e-06 -4.31859e-06 1.46266e-06 1.46266e-06 1.79102e-06 1.79102e-06 -4.00344e-06 -4.00344e-06 4.48672e-06 4.48672e-06 -3.41208e-06 -3.41208e-06 1.55159e-06 1.55159e-06 1.68706e-07 1.68706e-07 -1.08667e-06 -1.08667e-06 1.02994e-06 1.02994e-06 -2.9507e-07 -2.9507e-07 -5.65423e-07 -5.65423e-07 1.02665e-06 1.02665e-06 -8.17976e-07 -8.17976e-07 9.8915e-09 9.8915e-09 1.05203e-06 1.05203e-06 -1.91716e-06 -1.91716e-06 2.22207e-06 2.22207e-06 -1.82748e-06 -1.82748e-06 8.55122e-07 8.55122e-07 3.76178e-07 3.76178e-07 -1.47847e-06 -1.47847e-06 2.13251e-06 2.13251e-06 -2.18564e-06 -2.18564e-06 1.68169e-06 1.68169e-06 -8.2248e-07 -8.2248e-07 -1.15862e-07 -1.15862e-07 8.77354e-07 8.77354e-07 -1.29908e-06 -1.29908e-06 1.34287e-06 1.34287e-06 -1.08294e-06 -1.08294e-06 6.61478e-07 6.61478e-07 -2.32243e-07 -2.32243e-07 -8.78295e-08 -8.78295e-08 2.45337e-07 2.45337e-07 -2.51473e-07 -2.51473e-07 1.62444e-07 1.62444e-07 -4.98314e-08 -4.98314e-08 -2.74281e-08 -2.74281e-08 4.06858e-08 4.06858e-08 4.79363e-09 4.79363e-09 -7.85792e-08 -7.85792e-08 1.40863e-07 1.40863e-07 -1.58708e-07 -1.58708e-07 1.1728e-07 1.1728e-07 -2.32359e-08 -2.32359e-08 -9.9533e-08 -9.9533e-08 2.19174e-07 2.19174e-07 -3.06431e-07 -3.06431e-07 3.42987e-07 3.42987e-07 -3.2537e-07 -3.2537e-07 2.63969e-07 2.63969e-07 -1.78206e-07 -1.78206e-07 8.99426e-08 8.99426e-08 -1.72954e-08 -1.72954e-08 -2.94193e-08 -2.94193e-08 4.88531e-08 4.88531e-08 -4.70914e-08 -4.70914e-08 3.43542e-08 3.43542e-08 -2.11906e-08 -2.11906e-08 1.53367e-08 1.53367e-08 -1.99943e-08 -1.99943e-08 3.37473e-08 3.37473e-08 -5.18311e-08 -5.18311e-08 6.81433e-08 6.81433e-08 -7.72976e-08 -7.72976e-08 7.61381e-08 7.61381e-08 -6.43912e-08 -6.43912e-08 4.44271e-08 4.44271e-08 -2.03497e-08 -2.03497e-08 -3.22768e-09 -3.22768e-09 2.23461e-08 2.23461e-08 -3.45161e-08 -3.45161e-08 3.90417e-08 3.90417e-08 -3.68619e-08 -3.68619e-08 3.00412e-08 3.00412e-08 -2.11004e-08 -2.11004e-08 1.23801e-08 1.23801e-08 -5.58063e-09 -5.58063e-09 1.54896e-09 1.54896e-09 -3.07314e-10 -3.07314e-10 1.26043e-09 1.26043e-09 -3.4908e-09 -3.4908e-09 6.05105e-09 6.05105e-09 -8.1855e-09 -8.1855e-09 9.44694e-09 9.44694e-09 -9.70878e-09 -9.70878e-09 9.09827e-09 9.09827e-09 -7.88898e-09 -7.88898e-09 6.39059e-09 6.39059e-09 -4.86433e-09 -4.86433e-09 3.4779e-09 3.4779e-09 -2.29961e-09 -2.29961e-09 1.32138e-09 1.32138e-09 -4.95373e-10 -4.95373e-10 -2.30304e-10 -2.30304e-10 8.8701e-10 8.8701e-10 -1.47624e-09 -1.47624e-09 1.97426e-09 1.97426e-09 -2.34555e-09 -2.34555e-09 2.55873e-09 2.55873e-09 -2.59925e-09 -2.59925e-09 2.47558e-09 2.47558e-09 -2.21812e-09 -2.21812e-09 1.87222e-09 1.87222e-09 -1.48844e-09 -1.48844e-09 1.11274e-09 1.11274e-09 -7.79345e-10 -7.79345e-10 5.0731e-10 5.0731e-10 -3.00967e-10 -3.00967e-10 1.53202e-10 1.53202e-10 -5.02096e-11 -5.02096e-11 -2.37288e-11 -2.37288e-11 8.24984e-11 8.24984e-11 -1.35952e-10 -1.35952e-10 1.89244e-10 1.89244e-10 -2.43329e-10 -2.43329e-10 2.96064e-10 2.96064e-10 -3.4346e-10 -3.4346e-10 3.80739e-10 3.80739e-10 -4.03112e-10 -4.03112e-10 4.06326e-10 4.06326e-10 -3.8712e-10 -3.8712e-10 3.43699e-10 3.43699e-10 -2.76245e-10 -2.76245e-10 1.87377e-10 1.87377e-10 -8.24028e-11 -8.24028e-11 -3.08052e-11 -3.08052e-11 1.42433e-10 1.42433e-10 -2.41826e-10 -2.41826e-10 3.18934e-10 3.18934e-10 -3.65858e-10 -3.65858e-10 3.78168e-10 3.78168e-10 -3.55741e-10 -3.55741e-10 3.02884e-10 3.02884e-10 -2.27711e-10 -2.27711e-10 1.40869e-10 1.40869e-10 -5.38397e-11 -5.38397e-11 -2.28598e-11 -2.28598e-11 8.12365e-11 8.12365e-11 -1.16876e-10 -1.16876e-10 1.29317e-10 1.29317e-10 -1.21719e-10 -1.21719e-10 9.99275e-11 9.99275e-11 -7.11658e-11 -7.11658e-11 4.26059e-11 4.26059e-11 -2.01064e-11 -2.01064e-11 7.32657e-12 7.32657e-12 -5.34619e-12 -5.34619e-12 1.28081e-11 1.28081e-11 -2.65024e-11 -2.65024e-11 4.22345e-11 4.22345e-11 -5.57811e-11 -5.57811e-11 6.37445e-11 6.37445e-11 -6.41525e-11 -6.41525e-11 5.67181e-11 5.67181e-11 -4.27458e-11 -4.27458e-11 2.47411e-11 2.47411e-11 -5.82753e-12 -5.82753e-12 -1.08971e-11 -1.08971e-11 2.29388e-11 2.29388e-11 -2.88175e-11 -2.88175e-11 2.82507e-11 2.82507e-11 -2.21011e-11 -2.21011e-11 1.21201e-11 1.21201e-11 -5.57183e-13 -5.57183e-13 -1.02815e-11 -1.02815e-11 1.84407e-11 1.84407e-11 -2.26212e-11 -2.26212e-11 2.23389e-11 2.23389e-11 -1.79267e-11 -1.79267e-11 1.03961e-11 1.03961e-11 -1.19762e-12 -1.19762e-12 -8.0673e-12 -8.0673e-12 1.59278e-11 1.59278e-11 -2.12723e-11 -2.12723e-11 2.34913e-11 2.34913e-11 -2.25217e-11 -2.25217e-11 1.8796e-11 1.8796e-11 -1.31175e-11 -1.31175e-11 6.49032e-12 6.49032e-12 6.12914e-14 6.12914e-14 -5.65426e-12 -5.65426e-12 9.66466e-12 9.66466e-12 -1.17891e-11 -1.17891e-11 1.20473e-11 1.20473e-11 -1.07331e-11 -1.07331e-11 8.3295e-12 8.3295e-12 -5.40597e-12 -5.40597e-12 2.51653e-12 2.51653e-12 -1.15579e-13 -1.15579e-13 -1.49834e-12 -1.49834e-12 2.20573e-12 2.20573e-12 -2.05741e-12 -2.05741e-12 1.24007e-12 1.24007e-12 -2.51976e-14 -2.51976e-14 -1.28783e-12 -1.28783e-12 2.42483e-12 2.42483e-12 -3.17798e-12 -3.17798e-12 3.43053e-12 3.43053e-12 -3.16342e-12 -3.16342e-12 2.44545e-12 2.44545e-12 -1.41101e-12 -1.41101e-12 2.30554e-13 2.30554e-13 9.20407e-13 9.20407e-13 -1.88891e-12 -1.88891e-12 2.5649e-12 2.5649e-12 -2.89226e-12 -2.89226e-12 2.87029e-12 2.87029e-12 -2.54668e-12 -2.54668e-12 2.00429e-12 2.00429e-12 -1.3447e-12 -1.3447e-12 6.71275e-13 6.71275e-13 -7.44652e-14 -7.44652e-14 -3.78956e-13 -3.78956e-13 6.51713e-13 6.51713e-13 -7.3682e-13 -7.3682e-13 6.54e-13 6.54e-13 -4.42925e-13 -4.42925e-13 1.54728e-13 1.54728e-13 1.56757e-13 1.56757e-13 -4.4273e-13 -4.4273e-13 6.65262e-13 6.65262e-13 -8.00698e-13 -8.00698e-13 8.40579e-13 8.40579e-13 -7.90369e-13 -7.90369e-13 6.66518e-13 6.66518e-13 -4.92555e-13 -4.92555e-13 2.94896e-13 2.94896e-13 -9.89899e-14 -9.89899e-14 -7.37567e-14 -7.37567e-14 2.07992e-13 2.07992e-13 -2.95305e-13 -2.95305e-13 3.34067e-13 3.34067e-13 -3.28454e-13 -3.28454e-13 2.86913e-13 2.86913e-13 -2.20394e-13 -2.20394e-13 1.40612e-13 1.40612e-13 -5.85461e-14 -5.85461e-14 -1.66677e-14 -1.66677e-14 7.8404e-14 7.8404e-14 -1.22781e-13 -1.22781e-13 1.48522e-13 1.48522e-13 -1.56547e-13 -1.56547e-13 1.49404e-13 1.49404e-13 -1.30643e-13 -1.30643e-13 1.04229e-13 1.04229e-13 -7.40406e-14 -7.40406e-14 4.35113e-14 4.35113e-14 -1.53972e-14 -1.53972e-14 -8.32098e-15 -8.32098e-15 2.64355e-14 2.64355e-14 -3.84365e-14 -3.84365e-14 4.43941e-14 4.43941e-14 -4.48248e-14 -4.48248e-14 4.05592e-14 4.05592e-14 -3.26246e-14 -3.26246e-14 2.21453e-14 2.21453e-14 -1.02613e-14 -1.02613e-14 -1.93668e-15 -1.93668e-15 1.34611e-14 1.34611e-14 -2.34709e-14 -2.34709e-14 3.13079e-14 3.13079e-14 -3.65231e-14 -3.65231e-14 3.88933e-14 3.88933e-14 -3.84241e-14 -3.84241e-14 3.53387e-14 3.53387e-14 -3.00503e-14 -3.00503e-14 2.31211e-14 2.31211e-14 -1.52085e-14 -1.52085e-14 7.0051e-15 7.0051e-15 8.22338e-16 8.22338e-16 -7.69001e-15 -7.69001e-15 1.31432e-14 1.31432e-14 -1.68878e-14 -1.68878e-14 1.88049e-14 1.88049e-14 -1.89466e-14 -1.89466e-14 1.75165e-14 1.75165e-14 -1.48358e-14 -1.48358e-14 1.13018e-14 1.13018e-14 -7.3418e-15 -7.3418e-15 3.36906e-15 3.36906e-15 2.55245e-16 2.55245e-16 -3.2508e-15 -3.2508e-15 5.4354e-15 5.4354e-15 -6.73008e-15 -6.73008e-15 7.15317e-15 7.15317e-15 -6.80506e-15 -6.80506e-15 5.84653e-15 5.84653e-15 -4.47378e-15 -4.47378e-15 2.89327e-15 2.89327e-15 -1.299e-15 -1.299e-15 -1.45447e-16 -1.45447e-16 1.31914e-15 1.31914e-15 -2.14955e-15 -2.14955e-15 2.6123e-15 2.6123e-15 -2.72582e-15 -2.72582e-15 2.54227e-15 2.54227e-15 -2.13627e-15 -2.13627e-15 1.59308e-15 1.59308e-15 -9.9757e-16 -9.9757e-16 4.2509e-16 4.2509e-16 6.50721e-17 6.50721e-17 -4.33344e-16 -4.33344e-16 6.60725e-16 6.60725e-16 -7.47221e-16 -7.47221e-16 7.08449e-16 7.08449e-16 -5.71112e-16 -5.71112e-16 3.6805e-16 3.6805e-16 -1.33501e-16 -1.33501e-16 -1.00938e-16 -1.00938e-16 3.0931e-16 3.0931e-16 -4.7312e-16 -4.7312e-16 5.81979e-16 5.81979e-16 -6.33219e-16 -6.33219e-16 6.30724e-16 6.30724e-16 -5.83244e-16 -5.83244e-16 5.02499e-16 5.02499e-16 -4.01321e-16 -4.01321e-16 2.92046e-16 2.92046e-16 -1.8529e-16 -1.8529e-16 8.9175e-17 8.9175e-17 -8.99809e-18 -8.99809e-18 -5.26994e-17 -5.26994e-17 9.57651e-17 9.57651e-17 -1.21874e-16 -1.21874e-16 1.33882e-16 1.33882e-16 -1.35194e-16 -1.35194e-16 1.29224e-16 1.29224e-16 -1.18985e-16 -1.18985e-16 1.06848e-16 1.06848e-16 -9.4442e-17 -9.4442e-17 8.26929e-17 8.26929e-17 -7.19511e-17 -7.19511e-17 6.21731e-17 6.21731e-17 -5.31153e-17 -5.31153e-17 4.45076e-17 4.45076e-17 -3.6183e-17 -3.6183e-17 2.81511e-17 2.81511e-17 -2.06145e-17 -2.06145e-17 1.39348e-17 1.39348e-17 -8.56357e-18 -8.56357e-18 4.95351e-18 4.95351e-18 -3.46995e-18 -3.46995e-18 4.31575e-18 4.31575e-18 -7.48217e-18 -7.48217e-18 1.27313e-17 1.27313e-17 -1.96109e-17 -1.96109e-17 2.74983e-17 2.74983e-17 -3.5665e-17 -3.5665e-17 4.33532e-17 4.33532e-17 -4.98536e-17 -4.98536e-17 5.45751e-17 5.45751e-17 -5.70983e-17 -5.70983e-17 5.72081e-17 5.72081e-17 -5.49038e-17 -5.49038e-17 5.03862e-17 5.03862e-17 -4.40258e-17 -4.40258e-17 3.63177e-17 3.63177e-17 -2.78269e-17 -2.78269e-17 1.9134e-17 1.9134e-17 -1.07831e-17 -1.07831e-17 3.23966e-18 3.23966e-18 3.14031e-18 3.14031e-18 -8.12704e-18 -8.12704e-18 1.16206e-17 1.16206e-17 -1.3642e-17 -1.3642e-17 1.43149e-17 1.43149e-17 -1.38404e-17 -1.38404e-17 1.24688e-17 1.24688e-17 -1.0471e-17 -1.0471e-17 8.11282e-18 8.11282e-18 -5.63405e-18 -5.63405e-18 3.23325e-18 3.23325e-18 -1.05924e-18 -1.05924e-18 -7.91288e-19 -7.91288e-19 2.2708e-18 2.2708e-18 -3.37385e-18 -3.37385e-18 4.12745e-18 4.12745e-18 -4.58017e-18 -4.58017e-18 4.7916e-18 4.7916e-18 -4.82296e-18 -4.82296e-18 4.7299e-18 4.7299e-18 -4.55757e-18 -4.55757e-18 4.33833e-18 4.33833e-18 -4.09158e-18 -4.09158e-18 3.82548e-18 3.82548e-18 -3.53981e-18 -3.53981e-18 3.22949e-18 3.22949e-18 -2.88809e-18 -2.88809e-18 2.51087e-18 2.51087e-18 -2.09708e-18 -2.09708e-18 1.65117e-18 1.65117e-18 -1.18306e-18 -1.18306e-18 7.07411e-19 7.07411e-19 -2.42249e-19 -2.42249e-19 -1.92954e-19 -1.92954e-19 5.79327e-19 5.79327e-19 -9.00558e-19 -9.00558e-19 1.14452e-18 1.14452e-18 -1.30437e-18 -1.30437e-18 1.37913e-18 1.37913e-18 -1.37355e-18 -1.37355e-18 1.29747e-18 1.29747e-18 -1.16477e-18 -1.16477e-18 9.91978e-19 9.91978e-19 -7.96694e-19 -7.96694e-19 5.96137e-19 5.96137e-19 -4.05782e-19 -4.05782e-19 2.38302e-19 2.38302e-19 -1.02851e-19 -1.02851e-19 4.72711e-21 4.72711e-21 5.45875e-20 5.45875e-20 -7.70705e-20 -7.70705e-20 6.75391e-20 6.75391e-20 -3.28603e-20 -3.28603e-20 -1.89183e-20 -1.89183e-20 7.94303e-20 7.94303e-20 -1.40767e-19 -1.40767e-19 1.96112e-19 1.96112e-19 -2.40189e-19 -2.40189e-19 2.69518e-19 2.69518e-19 -2.82472e-19 -2.82472e-19 2.7916e-19 2.7916e-19 -2.61167e-19 -2.61167e-19 2.31207e-19 2.31207e-19 -1.92714e-19 -1.92714e-19 1.49428e-19 1.49428e-19 -1.05013e-19 -1.05013e-19 6.27384e-20 6.27384e-20 -2.52384e-20 -2.52384e-20 -5.63377e-21 -5.63377e-21 2.88595e-20 2.88595e-20 -4.42243e-20 -4.42243e-20 5.2218e-20 5.2218e-20 -5.38843e-20 -5.38843e-20 5.0641e-20 5.0641e-20 -4.40922e-20 -4.40922e-20 3.58502e-20 3.58502e-20 -2.73828e-20 -2.73828e-20 1.98958e-20 1.98958e-20 -1.42579e-20 -1.42579e-20 1.09679e-20 1.09679e-20 -1.01611e-20 -1.01611e-20 1.16504e-20 1.16504e-20 -1.49917e-20 -1.49917e-20 1.95649e-20 1.95649e-20 -2.46616e-20 -2.46616e-20 2.95687e-20 2.95687e-20 -3.36424e-20 -3.36424e-20 3.63659e-20 3.63659e-20 -3.73886e-20 -3.73886e-20 3.65439e-20 3.65439e-20 -3.38487e-20 -3.38487e-20 2.94857e-20 2.94857e-20 -2.37721e-20 -2.37721e-20 1.71203e-20 1.71203e-20 -9.99364e-21 -9.99364e-21 2.86293e-21 2.86293e-21 3.83341e-21 3.83341e-21 -9.72198e-21 -9.72198e-21 1.45182e-20 1.45182e-20 -1.80399e-20 -1.80399e-20 2.02117e-20 2.02117e-20 -2.10591e-20 -2.10591e-20 2.06963e-20 2.06963e-20 -1.93075e-20 -1.93075e-20 1.71252e-20 1.71252e-20 -1.44073e-20 -1.44073e-20 1.14145e-20 1.14145e-20 -8.39089e-21 -8.39089e-21 5.54784e-21 5.54784e-21 -3.05234e-21 -3.05234e-21 1.02057e-21 1.02057e-21 4.83966e-22 4.83966e-22 -1.44793e-21 -1.44793e-21 1.90213e-21 1.90213e-21 -1.91285e-21 -1.91285e-21 1.5716e-21 1.5716e-21 -9.84339e-22 -9.84339e-22 2.60969e-22 2.60969e-22 4.93987e-22 4.93987e-22 -1.18904e-21 -1.18904e-21 1.75133e-21 1.75133e-21 -2.12995e-21 -2.12995e-21 2.29715e-21 2.29715e-21 -2.2475e-21 -2.2475e-21 1.99547e-21 1.99547e-21 -1.57166e-21 -1.57166e-21 1.01841e-21 1.01841e-21 -3.84924e-22 -3.84924e-22 -2.77453e-22 -2.77453e-22 9.19511e-22 9.19511e-22 -1.49777e-21 -1.49777e-21 1.97717e-21 1.97717e-21 -2.33282e-21 -2.33282e-21 2.5507e-21 2.5507e-21 -2.62753e-21 -2.62753e-21 2.56983e-21 2.56983e-21 -2.39237e-21 -2.39237e-21 2.11622e-21 2.11622e-21 -1.76659e-21 -1.76659e-21 1.37064e-21 1.37064e-21 -9.55397e-22 -9.55397e-22 5.46003e-22 5.46003e-22 -1.64251e-22 -1.64251e-22 -1.72421e-22 -1.72421e-22 4.51521e-22 4.51521e-22 -6.65678e-22 -6.65678e-22 8.12444e-22 8.12444e-22 -8.93792e-22 -8.93792e-22 9.15384e-22 9.15384e-22 -8.85691e-22 -8.85691e-22 8.15053e-22 8.15053e-22 -7.14736e-22 -7.14736e-22 5.96076e-22 5.96076e-22 -4.6973e-22 -4.6973e-22 3.45087e-22 3.45087e-22 -2.29855e-22 -2.29855e-22 1.29812e-22 1.29812e-22 -4.87346e-23 -4.87346e-23 -1.15336e-23 -1.15336e-23 5.08938e-23 5.08938e-23 -7.07134e-23 -7.07134e-23 7.34921e-23 7.34921e-23 -6.25033e-23 -6.25033e-23 4.14396e-23 4.14396e-23 -1.40851e-23 -1.40851e-23 -1.59655e-23 -1.59655e-23 4.55311e-23 4.55311e-23 -7.20024e-23 -7.20024e-23 9.34365e-23 9.34365e-23 -1.08588e-22 -1.08588e-22 1.1689e-22 1.1689e-22 -1.18383e-22 -1.18383e-22 1.1362e-22 1.1362e-22 -1.03549e-22 -1.03549e-22 8.93787e-23 8.93787e-23 -7.24579e-23 -7.24579e-23 5.41547e-23 5.41547e-23 -3.57573e-23 -3.57573e-23 1.83948e-23 1.83948e-23 -2.98039e-24 -2.98039e-24 -9.82099e-24 -9.82099e-24 1.96031e-23 1.96031e-23 -2.62094e-23 -2.62094e-23 2.97085e-23 2.97085e-23 -3.0357e-23 -3.0357e-23 2.85558e-23 2.85558e-23 -2.48032e-23 -2.48032e-23 1.96476e-23 1.96476e-23 -1.36444e-23 -1.36444e-23 7.31917e-24 7.31917e-24 -1.13777e-24 -1.13777e-24 -4.51481e-24 -4.51481e-24 9.34707e-24 9.34707e-24 -1.31655e-23 -1.31655e-23 1.58721e-23 1.58721e-23 -1.74556e-23 -1.74556e-23 1.7979e-23 1.7979e-23 -1.75636e-23 -1.75636e-23 1.63719e-23 1.63719e-23 -1.45906e-23 -1.45906e-23 1.24145e-23 1.24145e-23 -1.00327e-23 -1.00327e-23 7.61705e-24 7.61705e-24 -5.31364e-24 -5.31364e-24 3.23768e-24 3.23768e-24 -1.47088e-24 -1.47088e-24 6.15542e-26 6.15542e-26 9.73053e-25 9.73053e-25 -1.64278e-24 -1.64278e-24 1.97943e-24 1.97943e-24 -2.03106e-24 -2.03106e-24 1.85609e-24 1.85609e-24 -1.51769e-24 -1.51769e-24 1.07883e-24 1.07883e-24 -5.98074e-25 -5.98074e-25 1.26427e-25 1.26427e-25 2.94848e-25 2.94848e-25 -6.35377e-25 -6.35377e-25 8.75916e-25 8.75916e-25 -1.00782e-24 -1.00782e-24 1.03187e-24 1.03187e-24 -9.56704e-25 -9.56704e-25 7.96935e-25 7.96935e-25 -5.71212e-25 -5.71212e-25 3.0031e-25 3.0031e-25 -5.39906e-27 -5.39906e-27 -2.9344e-25 -2.9344e-25 5.78384e-25 5.78384e-25 -8.34698e-25 -8.34698e-25 1.05124e-24 1.05124e-24 -1.22063e-24 -1.22063e-24 1.33916e-24 1.33916e-24 -1.40652e-24 -1.40652e-24 1.42524e-24 1.42524e-24 -1.40017e-24 -1.40017e-24 1.3378e-24 1.3378e-24 -1.24567e-24 -1.24567e-24 1.1317e-24 1.1317e-24 -1.00373e-24 -1.00373e-24 8.69035e-25 8.69035e-25 -7.34045e-25 -7.34045e-25 6.04091e-25 6.04091e-25 -4.8331e-25 -4.8331e-25 3.74617e-25 3.74617e-25 -2.79769e-25 -2.79769e-25 1.99479e-25 1.99479e-25 -1.3358e-25 -1.3358e-25 8.12094e-26 8.12094e-26 -4.10049e-26 -4.10049e-26 1.12885e-26 1.12885e-26 9.76089e-27 9.76089e-27 -2.39637e-26 -2.39637e-26 3.3024e-26 3.3024e-26 -3.84466e-26 -3.84466e-26 4.14851e-26 4.14851e-26 -4.31189e-26 -4.31189e-26 4.40538e-26 4.40538e-26 -4.47437e-26 -4.47437e-26 4.5425e-26 4.5425e-26 -4.61605e-26 -4.61605e-26 4.68868e-26 4.68868e-26 -4.74609e-26 -4.74609e-26 4.77036e-26 4.77036e-26 -4.74351e-26 -4.74351e-26 4.6504e-26 4.6504e-26 -4.48063e-26 -4.48063e-26 4.22967e-26 4.22967e-26 -3.89918e-26 -3.89918e-26 3.49665e-26 3.49665e-26 -3.03455e-26 -3.03455e-26 2.52911e-26 2.52911e-26 -1.99891e-26 -1.99891e-26 1.46344e-26 1.46344e-26 -9.41739e-27 -9.41739e-27 4.5116e-27 4.5116e-27 -6.47035e-29 -6.47035e-29 -3.80833e-27 -3.80833e-27 7.02882e-27 7.02882e-27 -9.55525e-27 -9.55525e-27 1.13815e-26 1.13815e-26 -1.25333e-26 -1.25333e-26 1.30628e-26 1.30628e-26 -1.30424e-26 -1.30424e-26 1.25585e-26 1.25585e-26 -1.17044e-26 -1.17044e-26 1.05751e-26 1.05751e-26 -9.26142e-27 -9.26142e-27 7.84647e-27 7.84647e-27 -6.40231e-27 -6.40231e-27 4.98827e-27 4.98827e-27 -3.65021e-27 -3.65021e-27 2.4207e-27 2.4207e-27 -1.32003e-27 -1.32003e-27 3.57771e-28 3.57771e-28 4.65292e-28 4.65292e-28 -1.15506e-27 -1.15506e-27 1.722e-27 1.722e-27 -2.17922e-27 -2.17922e-27 2.54076e-27 2.54076e-27 -2.82027e-27 -2.82027e-27 3.02995e-27 3.02995e-27 -3.18002e-27 -3.18002e-27 3.27842e-27 3.27842e-27 -3.33083e-27 -3.33083e-27 3.34094e-27 3.34094e-27 -3.3109e-27 -3.3109e-27 3.24188e-27 3.24188e-27 -3.13456e-27 -3.13456e-27 2.98974e-27 2.98974e-27 -2.80876e-27 -2.80876e-27 2.59