# vtk DataFile Version 3.0
#This file was generated by the deal.II library on 2020/9/1 at 14:42:00
ASCII
DATASET UNSTRUCTURED_GRID

POINTS 2048 double
1.5 0 0
1.59619 0 0
1.59619 0 0
1.69238 0 0
1.69238 0 0
1.78857 0 0
1.78857 0 0
1.88477 0 0
1.88477 0 0
1.98096 0 0
1.98096 0 0
2.07715 0 0
2.07715 0 0
2.17334 0 0
2.17334 0 0
2.26953 0 0
2.26953 0 0
2.36572 0 0
2.36572 0 0
2.46191 0 0
2.46191 0 0
2.55811 0 0
2.55811 0 0
2.6543 0 0
2.6543 0 0
2.75049 0 0
2.75049 0 0
2.84668 0 0
2.84668 0 0
2.94287 0 0
2.94287 0 0
3.03906 0 0
3.03906 0 0
3.13525 0 0
3.13525 0 0
3.23145 0 0
3.23145 0 0
3.32764 0 0
3.32764 0 0
3.42383 0 0
3.42383 0 0
3.52002 0 0
3.52002 0 0
3.61621 0 0
3.61621 0 0
3.7124 0 0
3.7124 0 0
3.80859 0 0
3.80859 0 0
3.90479 0 0
3.90479 0 0
4.00098 0 0
4.00098 0 0
4.09717 0 0
4.09717 0 0
4.19336 0 0
4.19336 0 0
4.28955 0 0
4.28955 0 0
4.38574 0 0
4.38574 0 0
4.48193 0 0
4.48193 0 0
4.57812 0 0
4.57812 0 0
4.67432 0 0
4.67432 0 0
4.77051 0 0
4.77051 0 0
4.8667 0 0
4.8667 0 0
4.96289 0 0
4.96289 0 0
5.05908 0 0
5.05908 0 0
5.15527 0 0
5.15527 0 0
5.25146 0 0
5.25146 0 0
5.34766 0 0
5.34766 0 0
5.44385 0 0
5.44385 0 0
5.54004 0 0
5.54004 0 0
5.63623 0 0
5.63623 0 0
5.73242 0 0
5.73242 0 0
5.82861 0 0
5.82861 0 0
5.9248 0 0
5.9248 0 0
6.021 0 0
6.021 0 0
6.11719 0 0
6.11719 0 0
6.21338 0 0
6.21338 0 0
6.30957 0 0
6.30957 0 0
6.40576 0 0
6.40576 0 0
6.50195 0 0
6.50195 0 0
6.59814 0 0
6.59814 0 0
6.69434 0 0
6.69434 0 0
6.79053 0 0
6.79053 0 0
6.88672 0 0
6.88672 0 0
6.98291 0 0
6.98291 0 0
7.0791 0 0
7.0791 0 0
7.17529 0 0
7.17529 0 0
7.27148 0 0
7.27148 0 0
7.36768 0 0
7.36768 0 0
7.46387 0 0
7.46387 0 0
7.56006 0 0
7.56006 0 0
7.65625 0 0
7.65625 0 0
7.75244 0 0
7.75244 0 0
7.84863 0 0
7.84863 0 0
7.94482 0 0
7.94482 0 0
8.04102 0 0
8.04102 0 0
8.13721 0 0
8.13721 0 0
8.2334 0 0
8.2334 0 0
8.32959 0 0
8.32959 0 0
8.42578 0 0
8.42578 0 0
8.52197 0 0
8.52197 0 0
8.61816 0 0
8.61816 0 0
8.71436 0 0
8.71436 0 0
8.81055 0 0
8.81055 0 0
8.90674 0 0
8.90674 0 0
9.00293 0 0
9.00293 0 0
9.09912 0 0
9.09912 0 0
9.19531 0 0
9.19531 0 0
9.2915 0 0
9.2915 0 0
9.3877 0 0
9.3877 0 0
9.48389 0 0
9.48389 0 0
9.58008 0 0
9.58008 0 0
9.67627 0 0
9.67627 0 0
9.77246 0 0
9.77246 0 0
9.86865 0 0
9.86865 0 0
9.96484 0 0
9.96484 0 0
10.061 0 0
10.061 0 0
10.1572 0 0
10.1572 0 0
10.2534 0 0
10.2534 0 0
10.3496 0 0
10.3496 0 0
10.4458 0 0
10.4458 0 0
10.542 0 0
10.542 0 0
10.6382 0 0
10.6382 0 0
10.7344 0 0
10.7344 0 0
10.8306 0 0
10.8306 0 0
10.9268 0 0
10.9268 0 0
11.0229 0 0
11.0229 0 0
11.1191 0 0
11.1191 0 0
11.2153 0 0
11.2153 0 0
11.3115 0 0
11.3115 0 0
11.4077 0 0
11.4077 0 0
11.5039 0 0
11.5039 0 0
11.6001 0 0
11.6001 0 0
11.6963 0 0
11.6963 0 0
11.7925 0 0
11.7925 0 0
11.8887 0 0
11.8887 0 0
11.9849 0 0
11.9849 0 0
12.0811 0 0
12.0811 0 0
12.1772 0 0
12.1772 0 0
12.2734 0 0
12.2734 0 0
12.3696 0 0
12.3696 0 0
12.4658 0 0
12.4658 0 0
12.562 0 0
12.562 0 0
12.6582 0 0
12.6582 0 0
12.7544 0 0
12.7544 0 0
12.8506 0 0
12.8506 0 0
12.9468 0 0
12.9468 0 0
13.043 0 0
13.043 0 0
13.1392 0 0
13.1392 0 0
13.2354 0 0
13.2354 0 0
13.3315 0 0
13.3315 0 0
13.4277 0 0
13.4277 0 0
13.5239 0 0
13.5239 0 0
13.6201 0 0
13.6201 0 0
13.7163 0 0
13.7163 0 0
13.8125 0 0
13.8125 0 0
13.9087 0 0
13.9087 0 0
14.0049 0 0
14.0049 0 0
14.1011 0 0
14.1011 0 0
14.1973 0 0
14.1973 0 0
14.2935 0 0
14.2935 0 0
14.3896 0 0
14.3896 0 0
14.4858 0 0
14.4858 0 0
14.582 0 0
14.582 0 0
14.6782 0 0
14.6782 0 0
14.7744 0 0
14.7744 0 0
14.8706 0 0
14.8706 0 0
14.9668 0 0
14.9668 0 0
15.063 0 0
15.063 0 0
15.1592 0 0
15.1592 0 0
15.2554 0 0
15.2554 0 0
15.3516 0 0
15.3516 0 0
15.4478 0 0
15.4478 0 0
15.5439 0 0
15.5439 0 0
15.6401 0 0
15.6401 0 0
15.7363 0 0
15.7363 0 0
15.8325 0 0
15.8325 0 0
15.9287 0 0
15.9287 0 0
16.0249 0 0
16.0249 0 0
16.1211 0 0
16.1211 0 0
16.2173 0 0
16.2173 0 0
16.3135 0 0
16.3135 0 0
16.4097 0 0
16.4097 0 0
16.5059 0 0
16.5059 0 0
16.6021 0 0
16.6021 0 0
16.6982 0 0
16.6982 0 0
16.7944 0 0
16.7944 0 0
16.8906 0 0
16.8906 0 0
16.9868 0 0
16.9868 0 0
17.083 0 0
17.083 0 0
17.1792 0 0
17.1792 0 0
17.2754 0 0
17.2754 0 0
17.3716 0 0
17.3716 0 0
17.4678 0 0
17.4678 0 0
17.564 0 0
17.564 0 0
17.6602 0 0
17.6602 0 0
17.7563 0 0
17.7563 0 0
17.8525 0 0
17.8525 0 0
17.9487 0 0
17.9487 0 0
18.0449 0 0
18.0449 0 0
18.1411 0 0
18.1411 0 0
18.2373 0 0
18.2373 0 0
18.3335 0 0
18.3335 0 0
18.4297 0 0
18.4297 0 0
18.5259 0 0
18.5259 0 0
18.6221 0 0
18.6221 0 0
18.7183 0 0
18.7183 0 0
18.8145 0 0
18.8145 0 0
18.9106 0 0
18.9106 0 0
19.0068 0 0
19.0068 0 0
19.103 0 0
19.103 0 0
19.1992 0 0
19.1992 0 0
19.2954 0 0
19.2954 0 0
19.3916 0 0
19.3916 0 0
19.4878 0 0
19.4878 0 0
19.584 0 0
19.584 0 0
19.6802 0 0
19.6802 0 0
19.7764 0 0
19.7764 0 0
19.8726 0 0
19.8726 0 0
19.9688 0 0
19.9688 0 0
20.0649 0 0
20.0649 0 0
20.1611 0 0
20.1611 0 0
20.2573 0 0
20.2573 0 0
20.3535 0 0
20.3535 0 0
20.4497 0 0
20.4497 0 0
20.5459 0 0
20.5459 0 0
20.6421 0 0
20.6421 0 0
20.7383 0 0
20.7383 0 0
20.8345 0 0
20.8345 0 0
20.9307 0 0
20.9307 0 0
21.0269 0 0
21.0269 0 0
21.123 0 0
21.123 0 0
21.2192 0 0
21.2192 0 0
21.3154 0 0
21.3154 0 0
21.4116 0 0
21.4116 0 0
21.5078 0 0
21.5078 0 0
21.604 0 0
21.604 0 0
21.7002 0 0
21.7002 0 0
21.7964 0 0
21.7964 0 0
21.8926 0 0
21.8926 0 0
21.9888 0 0
21.9888 0 0
22.085 0 0
22.085 0 0
22.1812 0 0
22.1812 0 0
22.2773 0 0
22.2773 0 0
22.3735 0 0
22.3735 0 0
22.4697 0 0
22.4697 0 0
22.5659 0 0
22.5659 0 0
22.6621 0 0
22.6621 0 0
22.7583 0 0
22.7583 0 0
22.8545 0 0
22.8545 0 0
22.9507 0 0
22.9507 0 0
23.0469 0 0
23.0469 0 0
23.1431 0 0
23.1431 0 0
23.2393 0 0
23.2393 0 0
23.3354 0 0
23.3354 0 0
23.4316 0 0
23.4316 0 0
23.5278 0 0
23.5278 0 0
23.624 0 0
23.624 0 0
23.7202 0 0
23.7202 0 0
23.8164 0 0
23.8164 0 0
23.9126 0 0
23.9126 0 0
24.0088 0 0
24.0088 0 0
24.105 0 0
24.105 0 0
24.2012 0 0
24.2012 0 0
24.2974 0 0
24.2974 0 0
24.3936 0 0
24.3936 0 0
24.4897 0 0
24.4897 0 0
24.5859 0 0
24.5859 0 0
24.6821 0 0
24.6821 0 0
24.7783 0 0
24.7783 0 0
24.8745 0 0
24.8745 0 0
24.9707 0 0
24.9707 0 0
25.0669 0 0
25.0669 0 0
25.1631 0 0
25.1631 0 0
25.2593 0 0
25.2593 0 0
25.3555 0 0
25.3555 0 0
25.4517 0 0
25.4517 0 0
25.5479 0 0
25.5479 0 0
25.644 0 0
25.644 0 0
25.7402 0 0
25.7402 0 0
25.8364 0 0
25.8364 0 0
25.9326 0 0
25.9326 0 0
26.0288 0 0
26.0288 0 0
26.125 0 0
26.125 0 0
26.2212 0 0
26.2212 0 0
26.3174 0 0
26.3174 0 0
26.4136 0 0
26.4136 0 0
26.5098 0 0
26.5098 0 0
26.606 0 0
26.606 0 0
26.7021 0 0
26.7021 0 0
26.7983 0 0
26.7983 0 0
26.8945 0 0
26.8945 0 0
26.9907 0 0
26.9907 0 0
27.0869 0 0
27.0869 0 0
27.1831 0 0
27.1831 0 0
27.2793 0 0
27.2793 0 0
27.3755 0 0
27.3755 0 0
27.4717 0 0
27.4717 0 0
27.5679 0 0
27.5679 0 0
27.6641 0 0
27.6641 0 0
27.7603 0 0
27.7603 0 0
27.8564 0 0
27.8564 0 0
27.9526 0 0
27.9526 0 0
28.0488 0 0
28.0488 0 0
28.145 0 0
28.145 0 0
28.2412 0 0
28.2412 0 0
28.3374 0 0
28.3374 0 0
28.4336 0 0
28.4336 0 0
28.5298 0 0
28.5298 0 0
28.626 0 0
28.626 0 0
28.7222 0 0
28.7222 0 0
28.8184 0 0
28.8184 0 0
28.9146 0 0
28.9146 0 0
29.0107 0 0
29.0107 0 0
29.1069 0 0
29.1069 0 0
29.2031 0 0
29.2031 0 0
29.2993 0 0
29.2993 0 0
29.3955 0 0
29.3955 0 0
29.4917 0 0
29.4917 0 0
29.5879 0 0
29.5879 0 0
29.6841 0 0
29.6841 0 0
29.7803 0 0
29.7803 0 0
29.8765 0 0
29.8765 0 0
29.9727 0 0
29.9727 0 0
30.0688 0 0
30.0688 0 0
30.165 0 0
30.165 0 0
30.2612 0 0
30.2612 0 0
30.3574 0 0
30.3574 0 0
30.4536 0 0
30.4536 0 0
30.5498 0 0
30.5498 0 0
30.646 0 0
30.646 0 0
30.7422 0 0
30.7422 0 0
30.8384 0 0
30.8384 0 0
30.9346 0 0
30.9346 0 0
31.0308 0 0
31.0308 0 0
31.127 0 0
31.127 0 0
31.2231 0 0
31.2231 0 0
31.3193 0 0
31.3193 0 0
31.4155 0 0
31.4155 0 0
31.5117 0 0
31.5117 0 0
31.6079 0 0
31.6079 0 0
31.7041 0 0
31.7041 0 0
31.8003 0 0
31.8003 0 0
31.8965 0 0
31.8965 0 0
31.9927 0 0
31.9927 0 0
32.0889 0 0
32.0889 0 0
32.1851 0 0
32.1851 0 0
32.2812 0 0
32.2812 0 0
32.3774 0 0
32.3774 0 0
32.4736 0 0
32.4736 0 0
32.5698 0 0
32.5698 0 0
32.666 0 0
32.666 0 0
32.7622 0 0
32.7622 0 0
32.8584 0 0
32.8584 0 0
32.9546 0 0
32.9546 0 0
33.0508 0 0
33.0508 0 0
33.147 0 0
33.147 0 0
33.2432 0 0
33.2432 0 0
33.3394 0 0
33.3394 0 0
33.4355 0 0
33.4355 0 0
33.5317 0 0
33.5317 0 0
33.6279 0 0
33.6279 0 0
33.7241 0 0
33.7241 0 0
33.8203 0 0
33.8203 0 0
33.9165 0 0
33.9165 0 0
34.0127 0 0
34.0127 0 0
34.1089 0 0
34.1089 0 0
34.2051 0 0
34.2051 0 0
34.3013 0 0
34.3013 0 0
34.3975 0 0
34.3975 0 0
34.4937 0 0
34.4937 0 0
34.5898 0 0
34.5898 0 0
34.686 0 0
34.686 0 0
34.7822 0 0
34.7822 0 0
34.8784 0 0
34.8784 0 0
34.9746 0 0
34.9746 0 0
35.0708 0 0
35.0708 0 0
35.167 0 0
35.167 0 0
35.2632 0 0
35.2632 0 0
35.3594 0 0
35.3594 0 0
35.4556 0 0
35.4556 0 0
35.5518 0 0
35.5518 0 0
35.6479 0 0
35.6479 0 0
35.7441 0 0
35.7441 0 0
35.8403 0 0
35.8403 0 0
35.9365 0 0
35.9365 0 0
36.0327 0 0
36.0327 0 0
36.1289 0 0
36.1289 0 0
36.2251 0 0
36.2251 0 0
36.3213 0 0
36.3213 0 0
36.4175 0 0
36.4175 0 0
36.5137 0 0
36.5137 0 0
36.6099 0 0
36.6099 0 0
36.7061 0 0
36.7061 0 0
36.8022 0 0
36.8022 0 0
36.8984 0 0
36.8984 0 0
36.9946 0 0
36.9946 0 0
37.0908 0 0
37.0908 0 0
37.187 0 0
37.187 0 0
37.2832 0 0
37.2832 0 0
37.3794 0 0
37.3794 0 0
37.4756 0 0
37.4756 0 0
37.5718 0 0
37.5718 0 0
37.668 0 0
37.668 0 0
37.7642 0 0
37.7642 0 0
37.8604 0 0
37.8604 0 0
37.9565 0 0
37.9565 0 0
38.0527 0 0
38.0527 0 0
38.1489 0 0
38.1489 0 0
38.2451 0 0
38.2451 0 0
38.3413 0 0
38.3413 0 0
38.4375 0 0
38.4375 0 0
38.5337 0 0
38.5337 0 0
38.6299 0 0
38.6299 0 0
38.7261 0 0
38.7261 0 0
38.8223 0 0
38.8223 0 0
38.9185 0 0
38.9185 0 0
39.0146 0 0
39.0146 0 0
39.1108 0 0
39.1108 0 0
39.207 0 0
39.207 0 0
39.3032 0 0
39.3032 0 0
39.3994 0 0
39.3994 0 0
39.4956 0 0
39.4956 0 0
39.5918 0 0
39.5918 0 0
39.688 0 0
39.688 0 0
39.7842 0 0
39.7842 0 0
39.8804 0 0
39.8804 0 0
39.9766 0 0
39.9766 0 0
40.0728 0 0
40.0728 0 0
40.1689 0 0
40.1689 0 0
40.2651 0 0
40.2651 0 0
40.3613 0 0
40.3613 0 0
40.4575 0 0
40.4575 0 0
40.5537 0 0
40.5537 0 0
40.6499 0 0
40.6499 0 0
40.7461 0 0
40.7461 0 0
40.8423 0 0
40.8423 0 0
40.9385 0 0
40.9385 0 0
41.0347 0 0
41.0347 0 0
41.1309 0 0
41.1309 0 0
41.2271 0 0
41.2271 0 0
[...]
POINT_DATA 2048
SCALARS solution_0 double 1
LOOKUP_TABLE default
-2.32071 -2.20648 -2.20648 -2.09966 -2.09966 -1.99914 -1.99914 -1.90407 -1.90407 -1.81378 -1.81378 -1.72773 -1.72773 -1.64548 -1.64548 -1.56669 -1.56669 -1.49107 -1.49107 -1.41835 -1.41835 -1.34835 -1.34835 -1.28087 -1.28087 -1.21577 -1.21577 -1.15292 -1.15292 -1.0922 -1.0922 -1.03352 -1.03352 -0.97677 -0.97677 -0.921884 -0.921884 -0.868788 -0.868788 -0.817417 -0.817417 -0.767711 -0.767711 -0.719618 -0.719618 -0.673087 -0.673087 -0.628072 -0.628072 -0.584531 -0.584531 -0.542424 -0.542424 -0.501713 -0.501713 -0.462362 -0.462362 -0.424338 -0.424338 -0.387608 -0.387608 -0.352141 -0.352141 -0.317908 -0.317908 -0.28488 -0.28488 -0.253028 -0.253028 -0.222327 -0.222327 -0.192749 -0.192749 -0.164269 -0.164269 -0.136862 -0.136862 -0.110503 -0.110503 -0.0851685 -0.0851685 -0.0608341 -0.0608341 -0.0374768 -0.0374768 -0.0150734 -0.0150734 0.00639851 0.00639851 0.0269615 0.0269615 0.0466376 0.0466376 0.0654485 0.0654485 0.083416 0.083416 0.100561 0.100561 0.116905 0.116905 0.132469 0.132469 0.147272 0.147272 0.161337 0.161337 0.174682 0.174682 0.187327 0.187327 0.199293 0.199293 0.210598 0.210598 0.221262 0.221262 0.231303 0.231303 0.240741 0.240741 0.249593 0.249593 0.257878 0.257878 0.265614 0.265614 0.272819 0.272819 0.279509 0.279509 0.285702 0.285702 0.291415 0.291415 0.296665 0.296665 0.301467 0.301467 0.305838 0.305838 0.309794 0.309794 0.313349 0.313349 0.316519 0.316519 0.31932 0.31932 0.321764 0.321764 0.323868 0.323868 0.325644 0.325644 0.327107 0.327107 0.32827 0.32827 0.329146 0.329146 0.329747 0.329747 0.330086 0.330086 0.330176 0.330176 0.330028 0.330028 0.329653 0.329653 0.329064 0.329064 0.328271 0.328271 0.327284 0.327284 0.326114 0.326114 0.324771 0.324771 0.323266 0.323266 0.321606 0.321606 0.319802 0.319802 0.317863 0.317863 0.315796 0.315796 0.313611 0.313611 0.311316 0.311316 0.308917 0.308917 0.306424 0.306424 0.303843 0.303843 0.30118 0.30118 0.298444 0.298444 0.29564 0.29564 0.292775 0.292775 0.289854 0.289854 0.286883 0.286883 0.283868 0.283868 0.280815 0.280815 0.277728 0.277728 0.274611 0.274611 0.271471 0.271471 0.26831 0.26831 0.265134 0.265134 0.261946 0.261946 0.25875 0.25875 0.25555 0.25555 0.252349 0.252349 0.24915 0.24915 0.245957 0.245957 0.242773 0.242773 0.239599 0.239599 0.236439 0.236439 0.233295 0.233295 0.230169 0.230169 0.227064 0.227064 0.223982 0.223982 0.220923 0.220923 0.217891 0.217891 0.214886 0.214886 0.21191 0.21191 0.208964 0.208964 0.20605 0.20605 0.203169 0.203169 0.200321 0.200321 0.197508 0.197508 0.19473 0.19473 0.191988 0.191988 0.189283 0.189283 0.186615 0.186615 0.183985 0.183985 0.181393 0.181393 0.178839 0.178839 0.176324 0.176324 0.173848 0.173848 0.171411 0.171411 0.169012 0.169012 0.166653 0.166653 0.164332 0.164332 0.162051 0.162051 0.159808 0.159808 0.157603 0.157603 0.155437 0.155437 0.153309 0.153309 0.151218 0.151218 0.149164 0.149164 0.147148 0.147148 0.145168 0.145168 0.143224 0.143224 0.141315 0.141315 0.139442 0.139442 0.137604 0.137604 0.135799 0.135799 0.134028 0.134028 0.132291 0.132291 0.130585 0.130585 0.128912 0.128912 0.12727 0.12727 0.125659 0.125659 0.124078 0.124078 0.122527 0.122527 0.121004 0.121004 0.11951 0.11951 0.118044 0.118044 0.116605 0.116605 0.115193 0.115193 0.113807 0.113807 0.112446 0.112446 0.11111 0.11111 0.109798 0.109798 0.10851 0.10851 0.107244 0.107244 0.106002 0.106002 0.104781 0.104781 0.103582 0.103582 0.102403 0.102403 0.101245 0.101245 0.100106 0.100106 0.0989866 0.0989866 0.0978859 0.0978859 0.0968034 0.0968034 0.0957386 0.0957386 0.094691 0.094691 0.0936602 0.0936602 0.0926456 0.0926456 0.0916469 0.0916469 0.0906635 0.0906635 0.089695 0.089695 0.0887411 0.0887411 0.0878013 0.0878013 0.0868752 0.0868752 0.0859625 0.0859625 0.0850627 0.0850627 0.0841755 0.0841755 0.0833005 0.0833005 0.0824374 0.0824374 0.0815859 0.0815859 0.0807456 0.0807456 0.0799162 0.0799162 0.0790974 0.0790974 0.078289 0.078289 0.0774906 0.0774906 0.076702 0.076702 0.0759229 0.0759229 0.075153 0.075153 0.0743921 0.0743921 0.0736401 0.0736401 0.0728966 0.0728966 0.0721614 0.0721614 0.0714343 0.0714343 0.0707152 0.0707152 0.0700038 0.0700038 0.0693 0.0693 0.0686035 0.0686035 0.0679142 0.0679142 0.067232 0.067232 0.0665566 0.0665566 0.065888 0.065888 0.065226 0.065226 0.0645705 0.0645705 0.0639212 0.0639212 0.0632782 0.0632782 0.0626413 0.0626413 0.0620103 0.0620103 0.0613852 0.0613852 0.0607659 0.0607659 0.0601522 0.0601522 0.0595441 0.0595441 0.0589414 0.0589414 0.0583442 0.0583442 0.0577523 0.0577523 0.0571656 0.0571656 0.0565841 0.0565841 0.0560076 0.0560076 0.0554362 0.0554362 0.0548697 0.0548697 0.0543082 0.0543082 0.0537514 0.0537514 0.0531995 0.0531995 0.0526522 0.0526522 0.0521096 0.0521096 0.0515717 0.0515717 0.0510383 0.0510383 0.0505094 0.0505094 0.0499851 0.0499851 0.0494651 0.0494651 0.0489496 0.0489496 0.0484384 0.0484384 0.0479315 0.0479315 0.0474289 0.0474289 0.0469305 0.0469305 0.0464363 0.0464363 0.0459463 0.0459463 0.0454603 0.0454603 0.0449785 0.0449785 0.0445008 0.0445008 0.044027 0.044027 0.0435572 0.0435572 0.0430914 0.0430914 0.0426295 0.0426295 0.0421715 0.0421715 0.0417173 0.0417173 0.0412669 0.0412669 0.0408203 0.0408203 0.0403775 0.0403775 0.0399383 0.0399383 0.0395029 0.0395029 0.039071 0.039071 0.0386428 0.0386428 0.0382181 0.0382181 0.037797 0.037797 0.0373794 0.0373794 0.0369652 0.0369652 0.0365545 0.0365545 0.0361471 0.0361471 0.0357432 0.0357432 0.0353425 0.0353425 0.0349451 0.0349451 0.0345509 0.0345509 0.0341599 0.0341599 0.0337722 0.0337722 0.0333875 0.0333875 0.0330059 0.0330059 0.0326274 0.0326274 0.0322519 0.0322519 0.0318793 0.0318793 0.0315097 0.0315097 0.031143 0.031143 0.0307792 0.0307792 0.0304181 0.0304181 0.0300599 0.0300599 0.0297044 0.0297044 0.0293516 0.0293516 0.0290015 0.0290015 0.028654 0.028654 0.0283091 0.0283091 0.0279667 0.0279667 0.0276269 0.0276269 0.0272896 0.0272896 0.0269547 0.0269547 0.0266222 0.0266222 0.0262922 0.0262922 0.0259644 0.0259644 0.025639 0.025639 0.0253159 0.0253159 0.0249951 0.0249951 0.0246764 0.0246764 0.02436 0.02436 0.0240458 0.0240458 0.0237337 0.0237337 0.0234237 0.0234237 0.0231158 0.0231158 0.02281 0.02281 0.0225062 0.0225062 0.0222045 0.0222045 0.0219048 0.0219048 0.021607 0.021607 0.0213113 0.0213113 0.0210175 0.0210175 0.0207257 0.0207257 0.0204358 0.0204358 0.0201478 0.0201478 0.0198617 0.0198617 0.0195776 0.0195776 0.0192953 0.0192953 0.0190149 0.0190149 0.0187364 0.0187364 0.0184598 0.0184598 0.0181851 0.0181851 0.0179123 0.0179123 0.0176413 0.0176413 0.0173722 0.0173722 0.017105 0.017105 0.0168398 0.0168398 0.0165764 0.0165764 0.0163149 0.0163149 0.0160553 0.0160553 0.0157976 0.0157976 0.0155419 0.0155419 0.0152881 0.0152881 0.0150363 0.0150363 0.0147864 0.0147864 0.0145386 0.0145386 0.0142927 0.0142927 0.0140488 0.0140488 0.013807 0.013807 0.0135672 0.0135672 0.0133295 0.0133295 0.0130939 0.0130939 0.0128603 0.0128603 0.0126289 0.0126289 0.0123996 0.0123996 0.0121725 0.0121725 0.0119475 0.0119475 0.0117248 0.0117248 0.0115042 0.0115042 0.0112859 0.0112859 0.0110698 0.0110698 0.010856 0.010856 0.0106445 0.0106445 0.0104353 0.0104353 0.0102284 0.0102284 0.0100238 0.0100238 0.00982163 0.00982163 0.00962178 0.00962178 0.00942432 0.00942432 0.00922926 0.00922926 0.0090366 0.0090366 0.00884635 0.00884635 0.00865854 0.00865854 0.00847317 0.00847317 0.00829024 0.00829024 0.00810977 0.00810977 0.00793175 0.00793175 0.0077562 0.0077562 0.00758312 0.00758312 0.00741251 0.00741251 0.00724437 0.00724437 0.0070787 0.0070787 0.0069155 0.0069155 0.00675477 0.00675477 0.00659649 0.00659649 0.00644067 0.00644067 0.00628729 0.00628729 0.00613636 0.00613636 0.00598785 0.00598785 0.00584175 0.00584175 0.00569805 0.00569805 0.00555674 0.00555674 0.0054178 0.0054178 0.00528121 0.00528121 0.00514695 0.00514695 0.005015 0.005015 0.00488535 0.00488535 0.00475795 0.00475795 0.00463281 0.00463281 0.00450987 0.00450987 0.00438913 0.00438913 0.00427055 0.00427055 0.0041541 0.0041541 0.00403975 0.00403975 0.00392747 0.00392747 0.00381723 0.00381723 0.003709 0.003709 0.00360273 0.00360273 0.00349841 0.00349841 0.00339598 0.00339598 0.00329542 0.00329542 0.00319669 0.00319669 0.00309974 0.00309974 0.00300456 0.00300456 0.00291108 0.00291108 0.00281929 0.00281929 0.00272912 0.00272912 0.00264056 0.00264056 0.00255356 0.00255356 0.00246808 0.00246808 0.00238407 0.00238407 0.00230151 0.00230151 0.00222035 0.00222035 0.00214055 0.00214055 0.00206208 0.00206208 0.00198488 0.00198488 0.00190894 0.00190894 0.0018342 0.0018342 0.00176063 0.00176063 0.00168819 0.00168819 0.00161685 0.00161685 0.00154657 0.00154657 0.00147731 0.00147731 0.00140903 0.00140903 0.00134171 0.00134171 0.00127532 0.00127532 0.0012098 0.0012098 0.00114514 0.00114514 0.00108131 0.00108131 0.00101827 0.00101827 0.000955985 0.000955985 0.000894437 0.000894437 0.000833594 0.000833594 0.00077343 0.00077343 0.000713917 0.000713917 0.00065503 0.00065503 0.000596746 0.000596746 0.000539039 0.000539039 0.000481889 0.000481889 0.000425273 0.000425273 0.000369171 0.000369171 0.000313563 0.000313563 0.000258431 0.000258431 0.000203757 0.000203757 0.000149523 0.000149523 9.57144e-05 9.57144e-05 4.2316e-05 4.2316e-05 -1.06862e-05 -1.06862e-05 -6.33055e-05 -6.33055e-05 -0.000115554 -0.000115554 -0.000167443 -0.000167443 -0.000218983 -0.000218983 -0.000270185 -0.000270185 -0.000321056 -0.000321056 -0.000371605 -0.000371605 -0.000421839 -0.000421839 -0.000471766 -0.000471766 -0.00052139 -0.00052139 -0.000570717 -0.000570717 -0.000619752 -0.000619752 -0.000668499 -0.000668499 -0.000716961 -0.000716961 -0.00076514 -0.00076514 -0.00081304 -0.00081304 -0.000860661 -0.000860661 -0.000908004 -0.000908004 -0.000955072 -0.000955072 -0.00100186 -0.00100186 -0.00104838 -0.00104838 -0.00109461 -0.00109461 -0.00114057 -0.00114057 -0.00118625 -0.00118625 -0.00123165 -0.00123165 -0.00127677 -0.00127677 -0.0013216 -0.0013216 -0.00136615 -0.00136615 -0.00141041 -0.00141041 -0.00145437 -0.00145437 -0.00149804 -0.00149804 -0.00154141 -0.00154141 -0.00158448 -0.00158448 -0.00162725 -0.00162725 -0.00166971 -0.00166971 -0.00171185 -0.00171185 -0.00175369 -0.00175369 -0.0017952 -0.0017952 -0.0018364 -0.0018364 -0.00187727 -0.00187727 -0.00191781 -0.00191781 -0.00195802 -0.00195802 -0.0019979 -0.0019979 -0.00203744 -0.00203744 -0.00207665 -0.00207665 -0.0021155 -0.0021155 -0.00215402 -0.00215402 -0.00219218 -0.00219218 -0.00223 -0.00223 -0.00226746 -0.00226746 -0.00230457 -0.00230457 -0.00234132 -0.00234132 -0.00237771 -0.00237771 -0.00241374 -0.00241374 -0.00244941 -0.00244941 -0.00248472 -0.00248472 -0.00251966 -0.00251966 -0.00255424 -0.00255424 -0.00258845 -0.00258845 -0.0026223 -0.0026223 -0.00265578 -0.00265578 -0.0026889 -0.0026889 -0.00272165 -0.00272165 -0.00275404 -0.00275404 -0.00278606 -0.00278606 -0.00281772 -0.00281772 -0.00284902 -0.00284902 -0.00287996 -0.00287996 -0.00291054 -0.00291054 -0.00294077 -0.00294077 -0.00297064 -0.00297064 -0.00300016 -0.00300016 -0.00302933 -0.00302933 -0.00305816 -0.00305816 -0.00308664 -0.00308664 -0.00311479 -0.00311479 -0.0031426 -0.0031426 -0.00317007 -0.00317007 -0.00319723 -0.00319723 -0.00322406 -0.00322406 -0.00325057 -0.00325057 -0.00327677 -0.00327677 -0.00330266 -0.00330266 -0.00332824 -0.00332824 -0.00335354 -0.00335354 -0.00337854 -0.00337854 -0.00340325 -0.00340325 -0.00342769 -0.00342769 -0.00345186 -0.00345186 -0.00347576 -0.00347576 -0.00349941 -0.00349941 -0.0035228 -0.0035228 -0.00354595 -0.00354595 -0.00356887 -0.00356887 -0.00359156 -0.00359156 -0.00361403 -0.00361403 -0.00363629 -0.00363629 -0.00365835 -0.00365835 -0.00368022 -0.00368022 -0.00370191 -0.00370191 -0.00372342 -0.00372342 -0.00374477 -0.00374477 -0.00376596 -0.00376596 -0.00378702 -0.00378702 -0.00380794 -0.00380794 -0.00382873 -0.00382873 -0.00384942 -0.00384942 -0.00387001 -0.00387001 -0.0038905 -0.0038905 -0.00391092 -0.00391092 -0.00393128 -0.00393128 -0.00395158 -0.00395158 -0.00397185 -0.00397185 -0.00399208 -0.00399208 -0.0040123 -0.0040123 -0.00403252 -0.00403252 -0.00405275 -0.00405275 -0.004073 -0.004073 -0.00409329 -0.00409329 -0.00411363 -0.00411363 -0.00413404 -0.00413404 -0.00415452 -0.00415452 -0.0041751 -0.0041751 -0.00419579 -0.00419579 -0.0042166 -0.0042166 -0.00423755 -0.00423755 -0.00425865 -0.00425865 -0.00427992 -0.00427992 -0.00430137 -0.00430137 -0.00432302 -0.00432302 -0.00434487 -0.00434487 -0.00436696 -0.00436696 -0.00438928 -0.00438928 -0.00441187 -0.00441187 -0.00443472 -0.00443472 -0.00445786 -0.00445786 -0.0044813 -0.0044813 -0.00450505 -0.00450505 -0.00452913 -0.00452913 -0.00455356 -0.00455356 -0.00457834 -0.00457834 -0.0046035 -0.0046035 -0.00462903 -0.00462903 -0.00465496 -0.00465496 -0.0046813 -0.0046813 -0.00470806 -0.00470806 -0.00473524 -0.00473524 -0.00476287 -0.00476287 -0.00479095 -0.00479095 -0.00481948 -0.00481948 -0.00484848 -0.00484848 -0.00487795 -0.00487795 -0.0049079 -0.0049079 -0.00493834 -0.00493834 -0.00496926 -0.00496926 -0.00500066 -0.00500066 -0.00503256 -0.00503256 -0.00506495 -0.00506495 -0.00509782 -0.00509782 -0.00513118 -0.00513118 -0.00516501 -0.00516501 -0.00519931 -0.00519931 -0.00523407 -0.00523407 -0.00526927 -0.00526927 -0.00530491 -0.00530491 -0.00534096 -0.00534096 -0.0053774 -0.0053774 -0.00541422 -0.00541422 -0.00545139 -0.00545139 -0.00548887 -0.00548887 -0.00552664 -0.00552664 -0.00556466 -0.00556466 -0.0056029 -0.0056029 -0.0056413 -0.0056413 -0.00567983 -0.00567983 -0.00571842 -0.00571842 -0.00575704 -0.00575704 -0.00579561 -0.00579561 -0.00583407 -0.00583407 -0.00587235 -0.00587235 -0.00591038 -0.00591038 -0.00594807 -0.00594807 -0.00598534 -0.00598534 -0.00602209 -0.00602209 -0.00605824 -0.00605824 -0.00609366 -0.00609366 -0.00612825 -0.00612825 -0.00616189 -0.00616189 -0.00619445 -0.00619445 -0.00622581 -0.00622581 -0.0062558 -0.0062558 -0.0062843 -0.0062843 -0.00631113 -0.00631113 -0.00633614 -0.00633614 -0.00635913 -0.00635913 -0.00637994 -0.00637994 -0.00639836 -0.00639836 -0.00641419 -0.00641419 -0.00642721 -0.00642721 -0.00643719 -0.00643719 -0.00644391 -0.00644391 -0.00644711 -0.00644711 -0.00644654 -0.00644654 -0.00644192 -0.00644192 -0.00643296 -0.00643296 -0.00641939 -0.00641939 -0.00640087 -0.00640087 -0.00637711 -0.00637711 -0.00634776 -0.00634776 -0.00631247 -0.00631247 -0.00627088 -0.00627088 -0.00622262 -0.00622262 -0.00616731 -0.00616731 -0.00610452 -0.00610452 -0.00603385 -0.00603385 -0.00595486 -0.00595486 -0.00586711 -0.00586711 -0.00577012 -0.00577012 -0.00566341 -0.00566341 -0.00554649 -0.00554649 -0.00541885 -0.00541885 -0.00527996 -0.00527996 -0.00512926 -0.00512926 -0.00496621 -0.00496621 -0.00479021 -0.00479021 -0.00460067 -0.00460067 -0.00439699 -0.00439699 -0.00417852 -0.00417852 -0.00394463 -0.00394463 -0.00369464 -0.00369464 -0.00342788 -0.00342788 -0.00314364 -0.00314364 -0.00284122 -0.00284122 -0.00251988 -0.00251988 -0.00217886 -0.00217886 -0.00181741 -0.00181741 -0.00143474 -0.00143474 -0.00103005 -0.00103005 -0.000602534 -0.000602534 -0.000151349 -0.000151349 0.000324347 0.000324347 0.000825414 0.000825414 0.00135273 0.00135273 0.00190719 0.00190719 0.00248969 0.00248969 0.00310115 0.00310115 0.00374251 0.00374251 0.0044147 0.0044147 0.00511869 0.00511869 0.00585544 0.00585544 0.00662592 0.00662592 0.00743113 0.00743113 0.00827205 0.00827205 0.00914969 0.00914969 0.0100651 0.0100651 0.0110192 0.0110192 0.0120131 0.0120131 0.0130478 0.0130478 0.0141243 0.0141243 0.0152436 0.0152436 0.0164069 0.0164069 0.017615 0.017615 0.0188691 0.0188691 0.0201702 0.0201702 0.0215192 0.0215192 0.0229172 0.0229172 0.0243653 0.0243653 0.0258644 0.0258644 0.0274154 0.0274154 0.0290194 0.0290194 0.0306774 0.0306774 0.0323902 0.0323902 0.0341588 0.0341588 0.0359842 0.0359842 0.0378671 0.0378671 0.0398085 0.0398085 0.0418092 0.0418092 0.04387 0.04387 0.0459918 0.0459918 0.0481751 0.0481751 0.0504209 0.0504209 0.0527297 0.0527297 0.0551022 0.0551022 0.0575391 0.0575391 0.0600408 0.0600408 0.0626079 0.0626079 0.0652409 0.0652409 0.0679403 0.0679403 0.0707063 0.0707063 0.0735393 0.0735393 0.0764397 0.0764397 0.0794075 0.0794075 0.0824431 0.0824431 0.0855464 0.0855464 0.0887174 0.0887174 0.0919563 0.0919563 0.0952627 0.0952627 0.0986367 0.0986367 0.102078 0.102078 0.105586 0.105586 0.109161 0.109161 0.112801 0.112801 0.116508 0.116508 0.120279 0.120279 0.124114 0.124114 0.128012 0.128012 0.131973 0.131973 0.135995 0.135995 0.140078 0.140078 0.14422 0.14422 0.14842 0.14842 0.152676 0.152676 0.156988 0.156988 0.161353 0.161353 0.16577 0.16577 0.170237 0.170237 0.174752 0.174752 0.179314 0.179314 0.18392 0.18392 0.188568 0.188568 0.193256 0.193256 0.197982 0.197982 0.202742 0.202742 0.207535 0.207535 0.212357 0.212357 0.217207 0.217207 0.22208 0.22208 0.226975 0.226975 0.231887 0.231887 0.236814 0.236814 0.241753 0.241753 0.2467 0.2467 0.251651 0.251651 0.256603 0.256603 0.261553 0.261553 0.266496 0.266496 0.271428 0.271428 0.276346 0.276346 0.281246 0.281246 0.286123 0.286123 0.290974 0.290974 0.295793 0.295793 0.300577 0.300577 0.305322 0.305322 0.310022 0.310022 0.314673 0.314673 0.31927 0.31927 0.323809 0.323809 0.328285 0.328285 0.332693 0.332693 0.337029 0.337029 0.341287 0.341287 0.345463 0.345463 0.349551 0.349551 0.353547 0.353547 0.357446 0.357446 0.361242 0.361242 0.36493 0.36493 0.368506 0.368506 0.371965 0.371965 0.375301 0.375301 0.37851 0.37851 0.381586 0.381586 0.384524 0.384524 0.38732 0.38732 0.389969 0.389969 0.392465 0.392465 0.394804 0.394804 0.396981 0.396981 0.398992 0.398992 0.400831 0.400831 0.402494 0.402494 0.403978 0.403978 0.405276 0.405276 0.406385 0.406385 0.407301 0.407301 0.408019 0.408019 0.408536 0.408536 0.408848 0.408848 0.40895 0.40895 0.40884 0.40884 0.408513 0.408513 0.407966 0.407966 0.407197 0.407197 0.406201 0.406201 0.404977 0.404977 0.403521 0.403521 0.40183 0.40183 0.399903 0.399903 0.397736 0.397736 0.395329 0.395329 0.392679 0.392679 0.389784 0.389784 0.386642 0.386642 0.383254 0.383254 0.379616 0.379616 0.37573 0.37573 0.371593 0.371593 0.367206 0.367206 0.362567 0.362567 0.357678 0.357678 0.352539 0.352539 0.347149 0.347149 0.34151 0.34151 0.335622 0.335622 0.329486 0.329486 0.323104 0.323104 0.316477 0.316477 0.309608 0.309608 0.302497 0.302497 0.295148 0.295148 0.287563 0.287563 0.279745 0.279745 0.271696 0.271696 0.263419 0.263419 0.254919 0.254919 0.246199 0.246199 0.237262 0.237262 0.228113 0.228113 0.218755 0.218755 0.209195 0.209195 0.199435 0.199435 0.189482 0.189482 0.179339 0.179339 0.169014 0.169014 0.15851 0.15851 0.147834 0.147834 0.136992 0.136992 0.125989 0.125989 0.114833 0.114833 0.103529 0.103529 0.0920838 0.0920838 0.0805045 0.0805045 0.0687978 0.0687978 0.0569707 0.0569707 0.0450305 0.0450305 0.0329843 0.0329843 0.0208397 0.0208397 0.00860412 0.00860412 -0.00371477 -0.00371477 -0.0161092 -0.0161092 -0.0285714 -0.0285714 -0.0410935 -0.0410935 -0.0536674 -0.0536674 -0.0662851 -0.0662851 -0.0789385 -0.0789385 -0.0916194 -0.0916194 -0.10432 -0.10432 -0.117031 -0.117031 -0.129745 -0.129745 -0.142454 -0.142454 -0.155149 -0.155149 -0.167822 -0.167822 -0.180465 -0.180465 -0.193069 -0.193069 -0.205627 -0.205627 -0.21813 -0.21813 -0.230569 -0.230569 -0.242938 -0.242938 -0.255227 -0.255227 -0.26743 -0.26743 -0.279537 -0.279537 -0.291542 -0.291542 -0.303437 -0.303437 -0.315213 -0.315213 -0.326864 -0.326864 -0.338382 -0.338382 -0.34976 -0.34976 -0.360991 -0.360991 -0.372069 -0.372069 -0.382985 -0.382985 -0.393734 -0.393734 -0.404308 -0.404308 -0.414703 -0.414703 -0.424911 -0.424911 -0.434926 -0.434926 -0.444744 -0.444744 -0.454358 -0.454358 -0.463762 -0.463762 -0.472952 -0.472952 -0.481923 -0.481923 -0.49067 -0.49067 -0.499188 -0.499188 -0.507473 -0.507473 -0.515521 -0.515521 -0.523327 -0.523327 -0.530889 -0.530889 -0.538203 -0.538203 -0.545265 -0.545265 -0.552072 -0.552072 -0.558622 -0.558622 -0.564913 -0.564913 -0.570941 -0.570941 -0.576706 -0.576706 -0.582204 -0.582204 -0.587434 -0.587434 -0.592396 -0.592396 -0.597088 -0.597088 -0.601509 -0.601509 -0.605658 -0.605658 -0.609535 -0.609535 -0.61314 -0.61314 -0.616473 -0.616473 -0.619534 -0.619534 -0.622324 -0.622324 -0.624843 -0.624843 -0.627092 -0.627092 -0.629073 -0.629073 -0.63078