# vtk DataFile Version 3.0
#This file was generated by the deal.II library on 2020/9/1 at 14:40:19
ASCII
DATASET UNSTRUCTURED_GRID

POINTS 2048 double
1.5 0 0
1.59619 0 0
1.59619 0 0
1.69238 0 0
1.69238 0 0
1.78857 0 0
1.78857 0 0
1.88477 0 0
1.88477 0 0
1.98096 0 0
1.98096 0 0
2.07715 0 0
2.07715 0 0
2.17334 0 0
2.17334 0 0
2.26953 0 0
2.26953 0 0
2.36572 0 0
2.36572 0 0
2.46191 0 0
2.46191 0 0
2.55811 0 0
2.55811 0 0
2.6543 0 0
2.6543 0 0
2.75049 0 0
2.75049 0 0
2.84668 0 0
2.84668 0 0
2.94287 0 0
2.94287 0 0
3.03906 0 0
3.03906 0 0
3.13525 0 0
3.13525 0 0
3.23145 0 0
3.23145 0 0
3.32764 0 0
3.32764 0 0
3.42383 0 0
3.42383 0 0
3.52002 0 0
3.52002 0 0
3.61621 0 0
3.61621 0 0
3.7124 0 0
3.7124 0 0
3.80859 0 0
3.80859 0 0
3.90479 0 0
3.90479 0 0
4.00098 0 0
4.00098 0 0
4.09717 0 0
4.09717 0 0
4.19336 0 0
4.19336 0 0
4.28955 0 0
4.28955 0 0
4.38574 0 0
4.38574 0 0
4.48193 0 0
4.48193 0 0
4.57812 0 0
4.57812 0 0
4.67432 0 0
4.67432 0 0
4.77051 0 0
4.77051 0 0
4.8667 0 0
4.8667 0 0
4.96289 0 0
4.96289 0 0
5.05908 0 0
5.05908 0 0
5.15527 0 0
5.15527 0 0
5.25146 0 0
5.25146 0 0
5.34766 0 0
5.34766 0 0
5.44385 0 0
5.44385 0 0
5.54004 0 0
5.54004 0 0
5.63623 0 0
5.63623 0 0
5.73242 0 0
5.73242 0 0
5.82861 0 0
5.82861 0 0
5.9248 0 0
5.9248 0 0
6.021 0 0
6.021 0 0
6.11719 0 0
6.11719 0 0
6.21338 0 0
6.21338 0 0
6.30957 0 0
6.30957 0 0
6.40576 0 0
6.40576 0 0
6.50195 0 0
6.50195 0 0
6.59814 0 0
6.59814 0 0
6.69434 0 0
6.69434 0 0
6.79053 0 0
6.79053 0 0
6.88672 0 0
6.88672 0 0
6.98291 0 0
6.98291 0 0
7.0791 0 0
7.0791 0 0
7.17529 0 0
7.17529 0 0
7.27148 0 0
7.27148 0 0
7.36768 0 0
7.36768 0 0
7.46387 0 0
7.46387 0 0
7.56006 0 0
7.56006 0 0
7.65625 0 0
7.65625 0 0
7.75244 0 0
7.75244 0 0
7.84863 0 0
7.84863 0 0
7.94482 0 0
7.94482 0 0
8.04102 0 0
8.04102 0 0
8.13721 0 0
8.13721 0 0
8.2334 0 0
8.2334 0 0
8.32959 0 0
8.32959 0 0
8.42578 0 0
8.42578 0 0
8.52197 0 0
8.52197 0 0
8.61816 0 0
8.61816 0 0
8.71436 0 0
8.71436 0 0
8.81055 0 0
8.81055 0 0
8.90674 0 0
8.90674 0 0
9.00293 0 0
9.00293 0 0
9.09912 0 0
9.09912 0 0
9.19531 0 0
9.19531 0 0
9.2915 0 0
9.2915 0 0
9.3877 0 0
9.3877 0 0
9.48389 0 0
9.48389 0 0
9.58008 0 0
9.58008 0 0
9.67627 0 0
9.67627 0 0
9.77246 0 0
9.77246 0 0
9.86865 0 0
9.86865 0 0
9.96484 0 0
9.96484 0 0
10.061 0 0
10.061 0 0
10.1572 0 0
10.1572 0 0
10.2534 0 0
10.2534 0 0
10.3496 0 0
10.3496 0 0
10.4458 0 0
10.4458 0 0
10.542 0 0
10.542 0 0
10.6382 0 0
10.6382 0 0
10.7344 0 0
10.7344 0 0
10.8306 0 0
10.8306 0 0
10.9268 0 0
10.9268 0 0
11.0229 0 0
11.0229 0 0
11.1191 0 0
11.1191 0 0
11.2153 0 0
11.2153 0 0
11.3115 0 0
11.3115 0 0
11.4077 0 0
11.4077 0 0
11.5039 0 0
11.5039 0 0
11.6001 0 0
11.6001 0 0
11.6963 0 0
11.6963 0 0
11.7925 0 0
11.7925 0 0
11.8887 0 0
11.8887 0 0
11.9849 0 0
11.9849 0 0
12.0811 0 0
12.0811 0 0
12.1772 0 0
12.1772 0 0
12.2734 0 0
12.2734 0 0
12.3696 0 0
12.3696 0 0
12.4658 0 0
12.4658 0 0
12.562 0 0
12.562 0 0
12.6582 0 0
12.6582 0 0
12.7544 0 0
12.7544 0 0
12.8506 0 0
12.8506 0 0
12.9468 0 0
12.9468 0 0
13.043 0 0
13.043 0 0
13.1392 0 0
13.1392 0 0
13.2354 0 0
13.2354 0 0
13.3315 0 0
13.3315 0 0
13.4277 0 0
13.4277 0 0
13.5239 0 0
13.5239 0 0
13.6201 0 0
13.6201 0 0
13.7163 0 0
13.7163 0 0
13.8125 0 0
13.8125 0 0
13.9087 0 0
13.9087 0 0
14.0049 0 0
14.0049 0 0
14.1011 0 0
14.1011 0 0
14.1973 0 0
14.1973 0 0
14.2935 0 0
14.2935 0 0
14.3896 0 0
14.3896 0 0
14.4858 0 0
14.4858 0 0
14.582 0 0
14.582 0 0
14.6782 0 0
14.6782 0 0
14.7744 0 0
14.7744 0 0
14.8706 0 0
14.8706 0 0
14.9668 0 0
14.9668 0 0
15.063 0 0
15.063 0 0
15.1592 0 0
15.1592 0 0
15.2554 0 0
15.2554 0 0
15.3516 0 0
15.3516 0 0
15.4478 0 0
15.4478 0 0
15.5439 0 0
15.5439 0 0
15.6401 0 0
15.6401 0 0
15.7363 0 0
15.7363 0 0
15.8325 0 0
15.8325 0 0
15.9287 0 0
15.9287 0 0
16.0249 0 0
16.0249 0 0
16.1211 0 0
16.1211 0 0
16.2173 0 0
16.2173 0 0
16.3135 0 0
16.3135 0 0
16.4097 0 0
16.4097 0 0
16.5059 0 0
16.5059 0 0
16.6021 0 0
16.6021 0 0
16.6982 0 0
16.6982 0 0
16.7944 0 0
16.7944 0 0
16.8906 0 0
16.8906 0 0
16.9868 0 0
16.9868 0 0
17.083 0 0
17.083 0 0
17.1792 0 0
17.1792 0 0
17.2754 0 0
17.2754 0 0
17.3716 0 0
17.3716 0 0
17.4678 0 0
17.4678 0 0
17.564 0 0
17.564 0 0
17.6602 0 0
17.6602 0 0
17.7563 0 0
17.7563 0 0
17.8525 0 0
17.8525 0 0
17.9487 0 0
17.9487 0 0
18.0449 0 0
18.0449 0 0
18.1411 0 0
18.1411 0 0
18.2373 0 0
18.2373 0 0
18.3335 0 0
18.3335 0 0
18.4297 0 0
18.4297 0 0
18.5259 0 0
18.5259 0 0
18.6221 0 0
18.6221 0 0
18.7183 0 0
18.7183 0 0
18.8145 0 0
18.8145 0 0
18.9106 0 0
18.9106 0 0
19.0068 0 0
19.0068 0 0
19.103 0 0
19.103 0 0
19.1992 0 0
19.1992 0 0
19.2954 0 0
19.2954 0 0
19.3916 0 0
19.3916 0 0
19.4878 0 0
19.4878 0 0
19.584 0 0
19.584 0 0
19.6802 0 0
19.6802 0 0
19.7764 0 0
19.7764 0 0
19.8726 0 0
19.8726 0 0
19.9688 0 0
19.9688 0 0
20.0649 0 0
20.0649 0 0
20.1611 0 0
20.1611 0 0
20.2573 0 0
20.2573 0 0
20.3535 0 0
20.3535 0 0
20.4497 0 0
20.4497 0 0
20.5459 0 0
20.5459 0 0
20.6421 0 0
20.6421 0 0
20.7383 0 0
20.7383 0 0
20.8345 0 0
20.8345 0 0
20.9307 0 0
20.9307 0 0
21.0269 0 0
21.0269 0 0
21.123 0 0
21.123 0 0
21.2192 0 0
21.2192 0 0
21.3154 0 0
21.3154 0 0
21.4116 0 0
21.4116 0 0
21.5078 0 0
21.5078 0 0
21.604 0 0
21.604 0 0
21.7002 0 0
21.7002 0 0
21.7964 0 0
21.7964 0 0
21.8926 0 0
21.8926 0 0
21.9888 0 0
21.9888 0 0
22.085 0 0
22.085 0 0
22.1812 0 0
22.1812 0 0
22.2773 0 0
22.2773 0 0
22.3735 0 0
22.3735 0 0
22.4697 0 0
22.4697 0 0
22.5659 0 0
22.5659 0 0
22.6621 0 0
22.6621 0 0
22.7583 0 0
22.7583 0 0
22.8545 0 0
22.8545 0 0
22.9507 0 0
22.9507 0 0
23.0469 0 0
23.0469 0 0
23.1431 0 0
23.1431 0 0
23.2393 0 0
23.2393 0 0
23.3354 0 0
23.3354 0 0
23.4316 0 0
23.4316 0 0
23.5278 0 0
23.5278 0 0
23.624 0 0
23.624 0 0
23.7202 0 0
23.7202 0 0
23.8164 0 0
23.8164 0 0
23.9126 0 0
23.9126 0 0
24.0088 0 0
24.0088 0 0
24.105 0 0
24.105 0 0
24.2012 0 0
24.2012 0 0
24.2974 0 0
24.2974 0 0
24.3936 0 0
24.3936 0 0
24.4897 0 0
24.4897 0 0
24.5859 0 0
24.5859 0 0
24.6821 0 0
24.6821 0 0
24.7783 0 0
24.7783 0 0
24.8745 0 0
24.8745 0 0
24.9707 0 0
24.9707 0 0
25.0669 0 0
25.0669 0 0
25.1631 0 0
25.1631 0 0
25.2593 0 0
25.2593 0 0
25.3555 0 0
25.3555 0 0
25.4517 0 0
25.4517 0 0
25.5479 0 0
25.5479 0 0
25.644 0 0
25.644 0 0
25.7402 0 0
25.7402 0 0
25.8364 0 0
25.8364 0 0
25.9326 0 0
25.9326 0 0
26.0288 0 0
26.0288 0 0
26.125 0 0
26.125 0 0
26.2212 0 0
26.2212 0 0
26.3174 0 0
26.3174 0 0
26.4136 0 0
26.4136 0 0
26.5098 0 0
26.5098 0 0
26.606 0 0
26.606 0 0
26.7021 0 0
26.7021 0 0
26.7983 0 0
26.7983 0 0
26.8945 0 0
26.8945 0 0
26.9907 0 0
26.9907 0 0
27.0869 0 0
27.0869 0 0
27.1831 0 0
27.1831 0 0
27.2793 0 0
27.2793 0 0
27.3755 0 0
27.3755 0 0
27.4717 0 0
27.4717 0 0
27.5679 0 0
27.5679 0 0
27.6641 0 0
27.6641 0 0
27.7603 0 0
27.7603 0 0
27.8564 0 0
27.8564 0 0
27.9526 0 0
27.9526 0 0
28.0488 0 0
28.0488 0 0
28.145 0 0
28.145 0 0
28.2412 0 0
28.2412 0 0
28.3374 0 0
28.3374 0 0
28.4336 0 0
28.4336 0 0
28.5298 0 0
28.5298 0 0
28.626 0 0
28.626 0 0
28.7222 0 0
28.7222 0 0
28.8184 0 0
28.8184 0 0
28.9146 0 0
28.9146 0 0
29.0107 0 0
29.0107 0 0
29.1069 0 0
29.1069 0 0
29.2031 0 0
29.2031 0 0
29.2993 0 0
29.2993 0 0
29.3955 0 0
29.3955 0 0
29.4917 0 0
29.4917 0 0
29.5879 0 0
29.5879 0 0
29.6841 0 0
29.6841 0 0
29.7803 0 0
29.7803 0 0
29.8765 0 0
29.8765 0 0
29.9727 0 0
29.9727 0 0
30.0688 0 0
30.0688 0 0
30.165 0 0
30.165 0 0
30.2612 0 0
30.2612 0 0
30.3574 0 0
30.3574 0 0
30.4536 0 0
30.4536 0 0
30.5498 0 0
30.5498 0 0
30.646 0 0
30.646 0 0
30.7422 0 0
30.7422 0 0
30.8384 0 0
30.8384 0 0
30.9346 0 0
30.9346 0 0
31.0308 0 0
31.0308 0 0
31.127 0 0
31.127 0 0
31.2231 0 0
31.2231 0 0
31.3193 0 0
31.3193 0 0
31.4155 0 0
31.4155 0 0
31.5117 0 0
31.5117 0 0
31.6079 0 0
31.6079 0 0
31.7041 0 0
31.7041 0 0
31.8003 0 0
31.8003 0 0
31.8965 0 0
31.8965 0 0
31.9927 0 0
31.9927 0 0
32.0889 0 0
32.0889 0 0
32.1851 0 0
32.1851 0 0
32.2812 0 0
32.2812 0 0
32.3774 0 0
32.3774 0 0
32.4736 0 0
32.4736 0 0
32.5698 0 0
32.5698 0 0
32.666 0 0
32.666 0 0
32.7622 0 0
32.7622 0 0
32.8584 0 0
32.8584 0 0
32.9546 0 0
32.9546 0 0
33.0508 0 0
33.0508 0 0
33.147 0 0
33.147 0 0
33.2432 0 0
33.2432 0 0
33.3394 0 0
33.3394 0 0
33.4355 0 0
33.4355 0 0
33.5317 0 0
33.5317 0 0
33.6279 0 0
33.6279 0 0
33.7241 0 0
33.7241 0 0
33.8203 0 0
33.8203 0 0
33.9165 0 0
33.9165 0 0
34.0127 0 0
34.0127 0 0
34.1089 0 0
34.1089 0 0
34.2051 0 0
34.2051 0 0
34.3013 0 0
34.3013 0 0
34.3975 0 0
34.3975 0 0
34.4937 0 0
34.4937 0 0
34.5898 0 0
34.5898 0 0
34.686 0 0
34.686 0 0
34.7822 0 0
34.7822 0 0
34.8784 0 0
34.8784 0 0
34.9746 0 0
34.9746 0 0
35.0708 0 0
35.0708 0 0
35.167 0 0
35.167 0 0
35.2632 0 0
35.2632 0 0
35.3594 0 0
35.3594 0 0
35.4556 0 0
35.4556 0 0
35.5518 0 0
35.5518 0 0
35.6479 0 0
35.6479 0 0
35.7441 0 0
35.7441 0 0
35.8403 0 0
35.8403 0 0
35.9365 0 0
35.9365 0 0
36.0327 0 0
36.0327 0 0
36.1289 0 0
36.1289 0 0
36.2251 0 0
36.2251 0 0
36.3213 0 0
36.3213 0 0
36.4175 0 0
36.4175 0 0
36.5137 0 0
36.5137 0 0
36.6099 0 0
36.6099 0 0
36.7061 0 0
36.7061 0 0
36.8022 0 0
36.8022 0 0
36.8984 0 0
36.8984 0 0
36.9946 0 0
36.9946 0 0
37.0908 0 0
37.0908 0 0
37.187 0 0
37.187 0 0
37.2832 0 0
37.2832 0 0
37.3794 0 0
37.3794 0 0
37.4756 0 0
37.4756 0 0
37.5718 0 0
37.5718 0 0
37.668 0 0
37.668 0 0
37.7642 0 0
37.7642 0 0
37.8604 0 0
37.8604 0 0
37.9565 0 0
37.9565 0 0
38.0527 0 0
38.0527 0 0
38.1489 0 0
38.1489 0 0
38.2451 0 0
38.2451 0 0
38.3413 0 0
38.3413 0 0
38.4375 0 0
38.4375 0 0
38.5337 0 0
38.5337 0 0
38.6299 0 0
38.6299 0 0
38.7261 0 0
38.7261 0 0
38.8223 0 0
38.8223 0 0
38.9185 0 0
38.9185 0 0
39.0146 0 0
39.0146 0 0
39.1108 0 0
39.1108 0 0
39.207 0 0
39.207 0 0
39.3032 0 0
39.3032 0 0
39.3994 0 0
39.3994 0 0
39.4956 0 0
39.4956 0 0
39.5918 0 0
39.5918 0 0
39.688 0 0
39.688 0 0
39.7842 0 0
39.7842 0 0
39.8804 0 0
39.8804 0 0
39.9766 0 0
39.9766 0 0
40.0728 0 0
40.0728 0 0
40.1689 0 0
40.1689 0 0
40.2651 0 0
40.2651 0 0
40.3613 0 0
40.3613 0 0
40.4575 0 0
40.4575 0 0
40.5537 0 0
40.5537 0 0
40.6499 0 0
40.6499 0 0
40.7461 0 0
40.7461 0 0
40.8423 0 0
40.8423 0 0
40.9385 0 0
40.9385 0 0
41.0347 0 0
41.0347 0 0
41.1309 0 0
41.1309 0 0
41.2271 0 0
41.2271 0 0
[...]
POINT_DATA 2048
SCALARS solution_0 double 1
LOOKUP_TABLE default
0.0884976 0.0885492 0.0885492 0.0884915 0.0884915 0.0883539 0.0883539 0.0881571 0.0881571 0.0879161 0.0879161 0.087642 0.087642 0.087343 0.087343 0.0870254 0.0870254 0.0866939 0.0866939 0.0863524 0.0863524 0.0860036 0.0860036 0.0856499 0.0856499 0.0852932 0.0852932 0.0849347 0.0849347 0.0845757 0.0845757 0.0842171 0.0842171 0.0838596 0.0838596 0.0835038 0.0835038 0.0831501 0.0831501 0.082799 0.082799 0.0824506 0.0824506 0.0821052 0.0821052 0.0817631 0.0817631 0.0814242 0.0814242 0.0810887 0.0810887 0.0807567 0.0807567 0.0804282 0.0804282 0.0801032 0.0801032 0.0797817 0.0797817 0.0794636 0.0794636 0.0791491 0.0791491 0.078838 0.078838 0.0785303 0.0785303 0.0782259 0.0782259 0.0779248 0.0779248 0.077627 0.077627 0.0773324 0.0773324 0.0770408 0.0770408 0.0767524 0.0767524 0.0764669 0.0764669 0.0761843 0.0761843 0.0759047 0.0759047 0.0756278 0.0756278 0.0753536 0.0753536 0.0750821 0.0750821 0.0748132 0.0748132 0.0745468 0.0745468 0.0742829 0.0742829 0.0740213 0.0740213 0.0737622 0.0737622 0.0735053 0.0735053 0.0732506 0.0732506 0.072998 0.072998 0.0727476 0.0727476 0.0724992 0.0724992 0.0722527 0.0722527 0.0720082 0.0720082 0.0717655 0.0717655 0.0715247 0.0715247 0.0712856 0.0712856 0.0710482 0.0710482 0.0708124 0.0708124 0.0705782 0.0705782 0.0703456 0.0703456 0.0701144 0.0701144 0.0698847 0.0698847 0.0696564 0.0696564 0.0694294 0.0694294 0.0692037 0.0692037 0.0689793 0.0689793 0.068756 0.068756 0.0685339 0.0685339 0.0683129 0.0683129 0.068093 0.068093 0.0678741 0.0678741 0.0676562 0.0676562 0.0674392 0.0674392 0.0672231 0.0672231 0.0670078 0.0670078 0.0667934 0.0667934 0.0665797 0.0665797 0.0663668 0.0663668 0.0661545 0.0661545 0.0659429 0.0659429 0.0657318 0.0657318 0.0655214 0.0655214 0.0653115 0.0653115 0.065102 0.065102 0.064893 0.064893 0.0646845 0.0646845 0.0644762 0.0644762 0.0642684 0.0642684 0.0640608 0.0640608 0.0638535 0.0638535 0.0636464 0.0636464 0.0634395 0.0634395 0.0632327 0.0632327 0.063026 0.063026 0.0628195 0.0628195 0.0626129 0.0626129 0.0624064 0.0624064 0.0621998 0.0621998 0.0619931 0.0619931 0.0617863 0.0617863 0.0615794 0.0615794 0.0613723 0.0613723 0.061165 0.061165 0.0609574 0.0609574 0.0607495 0.0607495 0.0605413 0.0605413 0.0603327 0.0603327 0.0601237 0.0601237 0.0599142 0.0599142 0.0597043 0.0597043 0.0594938 0.0594938 0.0592828 0.0592828 0.0590712 0.0590712 0.0588589 0.0588589 0.058646 0.058646 0.0584324 0.0584324 0.058218 0.058218 0.0580028 0.0580028 0.0577868 0.0577868 0.0575699 0.0575699 0.0573522 0.0573522 0.0571335 0.0571335 0.0569138 0.0569138 0.0566931 0.0566931 0.0564713 0.0564713 0.0562484 0.0562484 0.0560244 0.0560244 0.0557993 0.0557993 0.0555729 0.0555729 0.0553452 0.0553452 0.0551163 0.0551163 0.0548861 0.0548861 0.0546544 0.0546544 0.0544214 0.0544214 0.054187 0.054187 0.0539511 0.0539511 0.0537136 0.0537136 0.0534747 0.0534747 0.0532341 0.0532341 0.052992 0.052992 0.0527482 0.0527482 0.0525027 0.0525027 0.0522555 0.0522555 0.0520066 0.0520066 0.0517559 0.0517559 0.0515034 0.0515034 0.0512492 0.0512492 0.050993 0.050993 0.050735 0.050735 0.0504752 0.0504752 0.0502134 0.0502134 0.0499497 0.0499497 0.049684 0.049684 0.0494165 0.0494165 0.0491469 0.0491469 0.0488754 0.0488754 0.0486018 0.0486018 0.0483263 0.0483263 0.0480488 0.0480488 0.0477692 0.0477692 0.0474877 0.0474877 0.0472041 0.0472041 0.0469184 0.0469184 0.0466307 0.0466307 0.046341 0.046341 0.0460492 0.0460492 0.0457552 0.0457552 0.0454592 0.0454592 0.045161 0.045161 0.0448606 0.0448606 0.044558 0.044558 0.0442531 0.0442531 0.0439458 0.0439458 0.043636 0.043636 0.0433237 0.0433237 0.0430086 0.0430086 0.0426906 0.0426906 0.0423696 0.0423696 0.0420452 0.0420452 0.0417173 0.0417173 0.0413856 0.0413856 0.0410495 0.0410495 0.0407089 0.0407089 0.0403631 0.0403631 0.0400117 0.0400117 0.039654 0.039654 0.0392893 0.0392893 0.0389169 0.0389169 0.0385358 0.0385358 0.0381452 0.0381452 0.0377438 0.0377438 0.0373305 0.0373305 0.0369039 0.0369039 0.0364625 0.0364625 0.0360047 0.0360047 0.0355286 0.0355286 0.0350323 0.0350323 0.0345136 0.0345136 0.0339701 0.0339701 0.0333993 0.0333993 0.0327983 0.0327983 0.0321643 0.0321643 0.0314938 0.0314938 0.0307835 0.0307835 0.0300295 0.0300295 0.0292279 0.0292279 0.0283744 0.0283744 0.0274644 0.0274644 0.0264929 0.0264929 0.0254549 0.0254549 0.0243448 0.0243448 0.0231569 0.0231569 0.021885 0.021885 0.0205227 0.0205227 0.0190632 0.0190632 0.0174995 0.0174995 0.015824 0.015824 0.0140291 0.0140291 0.0121067 0.0121067 0.0100484 0.0100484 0.00784547 0.00784547 0.00548886 0.00548886 0.00296929 0.00296929 0.000277148 0.000277148 -0.00259742 -0.00259742 -0.00566452 -0.00566452 -0.00893448 -0.00893448 -0.0124178 -0.0124178 -0.0161253 -0.0161253 -0.0200676 -0.0200676 -0.0242557 -0.0242557 -0.0287005 -0.0287005 -0.0334131 -0.0334131 -0.0384042 -0.0384042 -0.0436847 -0.0436847 -0.0492651 -0.0492651 -0.0551556 -0.0551556 -0.0613663 -0.0613663 -0.0679067 -0.0679067 -0.0747857 -0.0747857 -0.0820117 -0.0820117 -0.0895923 -0.0895923 -0.0975342 -0.0975342 -0.105843 -0.105843 -0.114524 -0.114524 -0.12358 -0.12358 -0.133013 -0.133013 -0.142824 -0.142824 -0.153012 -0.153012 -0.163573 -0.163573 -0.174503 -0.174503 -0.185795 -0.185795 -0.19744 -0.19744 -0.209425 -0.209425 -0.221737 -0.221737 -0.234359 -0.234359 -0.247271 -0.247271 -0.26045 -0.26045 -0.273871 -0.273871 -0.287506 -0.287506 -0.301322 -0.301322 -0.315283 -0.315283 -0.329352 -0.329352 -0.343487 -0.343487 -0.357641 -0.357641 -0.371767 -0.371767 -0.385812 -0.385812 -0.399721 -0.399721 -0.413435 -0.413435 -0.426893 -0.426893 -0.440028 -0.440028 -0.452774 -0.452774 -0.46506 -0.46506 -0.476811 -0.476811 -0.487953 -0.487953 -0.498408 -0.498408 -0.508094 -0.508094 -0.516931 -0.516931 -0.524835 -0.524835 -0.531722 -0.531722 -0.537506 -0.537506 -0.5421 -0.5421 -0.54542 -0.54542 -0.547379 -0.547379 -0.547891 -0.547891 -0.546872 -0.546872 -0.544239 -0.544239 -0.539909 -0.539909 -0.533803 -0.533803 -0.525844 -0.525844 -0.515959 -0.515959 -0.504077 -0.504077 -0.490132 -0.490132 -0.474062 -0.474062 -0.45581 -0.45581 -0.435325 -0.435325 -0.412562 -0.412562 -0.387481 -0.387481 -0.360051 -0.360051 -0.330247 -0.330247 -0.298054 -0.298054 -0.263463 -0.263463 -0.226476 -0.226476 -0.187104 -0.187104 -0.145366 -0.145366 -0.101295 -0.101295 -0.0549306 -0.0549306 -0.00632581 -0.00632581 0.0444558 0.0444558 0.0973395 0.0973395 0.152239 0.152239 0.209055 0.209055 0.267679 0.267679 0.327989 0.327989 0.389852 0.389852 0.453125 0.453125 0.517652 0.517652 0.583268 0.583268 0.649798 0.649798 0.717057 0.717057 0.784852 0.784852 0.852982 0.852982 0.921237 0.921237 0.989405 0.989405 1.05727 1.05727 1.1246 1.1246 1.19117 1.19117 1.25676 1.25676 1.32115 1.32115 1.38409 1.38409 1.44538 1.44538 1.50479 1.50479 1.5621 1.5621 1.61711 1.61711 1.66963 1.66963 1.71945 1.71945 1.7664 1.7664 1.81032 1.81032 1.85104 1.85104 1.88843 1.88843 1.92236 1.92236 1.95271 1.95271 1.97941 1.97941 2.00236 2.00236 2.0215 2.0215 2.03681 2.03681 2.04825 2.04825 2.05581 2.05581 2.05951 2.05951 2.05939 2.05939 2.05547 2.05547 2.04783 2.04783 2.03656 2.03656 2.02174 2.02174 2.00348 2.00348 1.98191 1.98191 1.95717 1.95717 1.92941 1.92941 1.89878 1.89878 1.86545 1.86545 1.8296 1.8296 1.79142 1.79142 1.75109 1.75109 1.7088 1.7088 1.66476 1.66476 1.61915 1.61915 1.57218 1.57218 1.52405 1.52405 1.47495 1.47495 1.42508 1.42508 1.37461 1.37461 1.32374 1.32374 1.27264 1.27264 1.22149 1.22149 1.17044 1.17044 1.11965 1.11965 1.06927 1.06927 1.01943 1.01943 0.970271 0.970271 0.921902 0.921902 0.874435 0.874435 0.827966 0.827966 0.782587 0.782587 0.738375 0.738375 0.695399 0.695399 0.653719 0.653719 0.613385 0.613385 0.574438 0.574438 0.536911 0.536911 0.500827 0.500827 0.466202 0.466202 0.433044 0.433044 0.401356 0.401356 0.371132 0.371132 0.342361 0.342361 0.315026 0.315026 0.289105 0.289105 0.264573 0.264573 0.241399 0.241399 0.219549 0.219549 0.198986 0.198986 0.179671 0.179671 0.161561 0.161561 0.144615 0.144615 0.128785 0.128785 0.114028 0.114028 0.100295 0.100295 0.0875405 0.0875405 0.0757173 0.0757173 0.0647787 0.0647787 0.0546783 0.0546783 0.0453705 0.0453705 0.0368106 0.0368106 0.0289549 0.0289549 0.0217609 0.0217609 0.0151872 0.0151872 0.00919401 0.00919401 0.00374298 0.00374298 -0.00120275 -0.00120275 -0.00567844 -0.00567844 -0.00971774 -0.00971774 -0.0133527 -0.0133527 -0.0166136 -0.0166136 -0.0195293 -0.0195293 -0.0221269 -0.0221269 -0.0244319 -0.0244319 -0.0264685 -0.0264685 -0.028259 -0.028259 -0.0298245 -0.0298245 -0.0311846 -0.0311846 -0.0323577 -0.0323577 -0.0333607 -0.0333607 -0.0342093 -0.0342093 -0.0349181 -0.0349181 -0.0355006 -0.0355006 -0.035969 -0.035969 -0.0363348 -0.0363348 -0.0366085 -0.0366085 -0.0367995 -0.0367995 -0.0369168 -0.0369168 -0.0369681 -0.0369681 -0.0369608 -0.0369608 -0.0369015 -0.0369015 -0.0367963 -0.0367963 -0.0366504 -0.0366504 -0.0364689 -0.0364689 -0.0362561 -0.0362561 -0.0360161 -0.0360161 -0.0357524 -0.0357524 -0.0354683 -0.0354683 -0.0351666 -0.0351666 -0.0348499 -0.0348499 -0.0345205 -0.0345205 -0.0341804 -0.0341804 -0.0338316 -0.0338316 -0.0334755 -0.0334755 -0.0331136 -0.0331136 -0.0327471 -0.0327471 -0.0323773 -0.0323773 -0.032005 -0.032005 -0.0316312 -0.0316312 -0.0312564 -0.0312564 -0.0308815 -0.0308815 -0.030507 -0.030507 -0.0301334 -0.0301334 -0.029761 -0.029761 -0.0293903 -0.0293903 -0.0290216 -0.0290216 -0.0286551 -0.0286551 -0.0282911 -0.0282911 -0.0279297 -0.0279297 -0.0275711 -0.0275711 -0.0272154 -0.0272154 -0.0268628 -0.0268628 -0.0265134 -0.0265134 -0.0261671 -0.0261671 -0.025824 -0.025824 -0.0254842 -0.0254842 -0.0251477 -0.0251477 -0.0248146 -0.0248146 -0.0244847 -0.0244847 -0.0241582 -0.0241582 -0.023835 -0.023835 -0.0235151 -0.0235151 -0.0231984 -0.0231984 -0.022885 -0.022885 -0.0225749 -0.0225749 -0.0222679 -0.0222679 -0.0219642 -0.0219642 -0.0216635 -0.0216635 -0.021366 -0.021366 -0.0210716 -0.0210716 -0.0207802 -0.0207802 -0.0204918 -0.0204918 -0.0202063 -0.0202063 -0.0199238 -0.0199238 -0.0196442 -0.0196442 -0.0193675 -0.0193675 -0.0190936 -0.0190936 -0.0188224 -0.0188224 -0.018554 -0.018554 -0.0182884 -0.0182884 -0.0180254 -0.0180254 -0.017765 -0.017765 -0.0175073 -0.0175073 -0.0172522 -0.0172522 -0.0169996 -0.0169996 -0.0167495 -0.0167495 -0.0165018 -0.0165018 -0.0162567 -0.0162567 -0.0160139 -0.0160139 -0.0157735 -0.0157735 -0.0155355 -0.0155355 -0.0152998 -0.0152998 -0.0150664 -0.0150664 -0.0148353 -0.0148353 -0.0146063 -0.0146063 -0.0143796 -0.0143796 -0.0141551 -0.0141551 -0.0139327 -0.0139327 -0.0137125 -0.0137125 -0.0134943 -0.0134943 -0.0132782 -0.0132782 -0.0130641 -0.0130641 -0.0128521 -0.0128521 -0.0126421 -0.0126421 -0.012434 -0.012434 -0.0122279 -0.0122279 -0.0120237 -0.0120237 -0.0118214 -0.0118214 -0.0116209 -0.0116209 -0.0114224 -0.0114224 -0.0112256 -0.0112256 -0.0110307 -0.0110307 -0.0108375 -0.0108375 -0.0106461 -0.0106461 -0.0104564 -0.0104564 -0.0102685 -0.0102685 -0.0100823 -0.0100823 -0.00989773 -0.00989773 -0.00971484 -0.00971484 -0.0095336 -0.0095336 -0.00935397 -0.00935397 -0.00917596 -0.00917596 -0.00899953 -0.00899953 -0.00882466 -0.00882466 -0.00865135 -0.00865135 -0.00847956 -0.00847956 -0.00830929 -0.00830929 -0.00814052 -0.00814052 -0.00797322 -0.00797322 -0.00780739 -0.00780739 -0.00764301 -0.00764301 -0.00748005 -0.00748005 -0.00731851 -0.00731851 -0.00715837 -0.00715837 -0.0069996 -0.0069996 -0.00684221 -0.00684221 -0.00668617 -0.00668617 -0.00653146 -0.00653146 -0.00637808 -0.00637808 -0.006226 -0.006226 -0.00607522 -0.00607522 -0.00592572 -0.00592572 -0.00577748 -0.00577748 -0.0056305 -0.0056305 -0.00548475 -0.00548475 -0.00534022 -0.00534022 -0.00519691 -0.00519691 -0.0050548 -0.0050548 -0.00491387 -0.00491387 -0.00477411 -0.00477411 -0.00463552 -0.00463552 -0.00449807 -0.00449807 -0.00436176 -0.00436176 -0.00422658 -0.00422658 -0.0040925 -0.0040925 -0.00395953 -0.00395953 -0.00382765 -0.00382765 -0.00369684 -0.00369684 -0.0035671 -0.0035671 -0.00343842 -0.00343842 -0.00331078 -0.00331078 -0.00318418 -0.00318418 -0.0030586 -0.0030586 -0.00293403 -0.00293403 -0.00281047 -0.00281047 -0.0026879 -0.0026879 -0.00256631 -0.00256631 -0.0024457 -0.0024457 -0.00232604 -0.00232604 -0.00220735 -0.00220735 -0.00208959 -0.00208959 -0.00197277 -0.00197277 -0.00185688 -0.00185688 -0.00174191 -0.00174191 -0.00162784 -0.00162784 -0.00151467 -0.00151467 -0.0014024 -0.0014024 -0.001291 -0.001291 -0.00118048 -0.00118048 -0.00107083 -0.00107083 -0.000962039 -0.000962039 -0.000854097 -0.000854097 -0.000747 -0.000747 -0.000640739 -0.000640739 -0.000535308 -0.000535308 -0.0004307 -0.0004307 -0.00032691 -0.00032691 -0.00022393 -0.00022393 -0.000121755 -0.000121755 -2.03797e-05 -2.03797e-05 8.02013e-05 8.02013e-05 0.000179993 0.000179993 0.000278999 0.000278999 0.000377224 0.000377224 0.000474671 0.000474671 0.000571343 0.000571343 0.000667243 0.000667243 0.000762371 0.000762371 0.00085673 0.00085673 0.00095032 0.00095032 0.00104314 0.00104314 0.00113519 0.00113519 0.00122647 0.00122647 0.00131697 0.00131697 0.00140669 0.00140669 0.00149562 0.00149562 0.00158377 0.00158377 0.00167111 0.00167111 0.00175765 0.00175765 0.00184337 0.00184337 0.00192826 0.00192826 0.0020123 0.0020123 0.00209549 0.00209549 0.0021778 0.0021778 0.00225922 0.00225922 0.00233972 0.00233972 0.00241929 0.00241929 0.00249789 0.00249789 0.0025755 0.0025755 0.00265208 0.00265208 0.00272762 0.00272762 0.00280207 0.00280207 0.00287539 0.00287539 0.00294755 0.00294755 0.0030185 0.0030185 0.00308819 0.00308819 0.00315659 0.00315659 0.00322363 0.00322363 0.00328926 0.00328926 0.00335344 0.00335344 0.00341609 0.00341609 0.00347715 0.00347715 0.00353657 0.00353657 0.00359428 0.00359428 0.0036502 0.0036502 0.00370427 0.00370427 0.00375641 0.00375641 0.00380655 0.00380655 0.00385462 0.00385462 0.00390053 0.00390053 0.0039442 0.0039442 0.00398557 0.00398557 0.00402454 0.00402454 0.00406105 0.00406105 0.00409501 0.00409501 0.00412635 0.00412635 0.004155 0.004155 0.00418087 0.00418087 0.0042039 0.0042039 0.00422403 0.00422403 0.00424118 0.00424118 0.00425531 0.00425531 0.00426634 0.00426634 0.00427425 0.00427425 0.00427897 0.00427897 0.00428047 0.00428047 0.00427873 0.00427873 0.00427371 0.00427371 0.0042654 0.0042654 0.0042538 0.0042538 0.0042389 0.0042389 0.00422071 0.00422071 0.00419925 0.00419925 0.00417454 0.00417454 0.00414663 0.00414663 0.00411556 0.00411556 0.00408139 0.00408139 0.00404418 0.00404418 0.004004 0.004004 0.00396095 0.00396095 0.00391512 0.00391512 0.0038666 0.0038666 0.00381552 0.00381552 0.003762 0.003762 0.00370616 0.00370616 0.00364815 0.00364815 0.0035881 0.0035881 0.00352616 0.00352616 0.0034625 0.0034625 0.00339727 0.00339727 0.00333064 0.00333064 0.00326278 0.00326278 0.00319385 0.00319385 0.00312404 0.00312404 0.00305352 0.00305352 0.00298247 0.00298247 0.00291105 0.00291105 0.00283945 0.00283945 0.00276783 0.00276783 0.00269637 0.00269637 0.00262522 0.00262522 0.00255455 0.00255455 0.00248452 0.00248452 0.00241528 0.00241528 0.00234697 0.00234697 0.00227972 0.00227972 0.00221368 0.00221368 0.00214896 0.00214896 0.00208567 0.00208567 0.00202393 0.00202393 0.00196384 0.00196384 0.00190548 0.00190548 0.00184893 0.00184893 0.00179427 0.00179427 0.00174157 0.00174157 0.00169087 0.00169087 0.00164223 0.00164223 0.00159569 0.00159569 0.00155127 0.00155127 0.00150899 0.00150899 0.00146889 0.00146889 0.00143095 0.00143095 0.00139518 0.00139518 0.00136158 0.00136158 0.00133014 0.00133014 0.00130084 0.00130084 0.00127365 0.00127365 0.00124855 0.00124855 0.0012255 0.0012255 0.00120448 0.00120448 0.00118543 0.00118543 0.00116832 0.00116832 0.00115309 0.00115309 0.00113971 0.00113971 0.00112811 0.00112811 0.00111825 0.00111825 0.00111008 0.00111008 0.00110353 0.00110353 0.00109855 0.00109855 0.00109508 0.00109508 0.00109307 0.00109307 0.00109245 0.00109245 0.00109318 0.00109318 0.00109519 0.00109519 0.00109843 0.00109843 0.00110284 0.00110284 0.00110837 0.00110837 0.00111496 0.00111496 0.00112256 0.00112256 0.00113112 0.00113112 0.00114059 0.00114059 0.00115091 0.00115091 0.00116205 0.00116205 0.00117396 0.00117396 0.00118659 0.00118659 0.0011999 0.0011999 0.00121384 0.00121384 0.00122838 0.00122838 0.00124348 0.00124348 0.00125911 0.00125911 0.00127522 0.00127522 0.00129178 0.00129178 0.00130876 0.00130876 0.00132614 0.00132614 0.00134388 0.00134388 0.00136195 0.00136195 0.00138033 0.00138033 0.00139899 0.00139899 0.00141792 0.00141792 0.00143708 0.00143708 0.00145645 0.00145645 0.00147602 0.00147602 0.00149577 0.00149577 0.00151569 0.00151569 0.00153574 0.00153574 0.00155592 0.00155592 0.00157622 0.00157622 0.00159662 0.00159662 0.00161711 0.00161711 0.00163767 0.00163767 0.0016583 0.0016583 0.00167898 0.00167898 0.00169971 0.00169971 0.00172048 0.00172048 0.00174128 0.00174128 0.0017621 0.0017621 0.00178293 0.00178293 0.00180377 0.00180377 0.00182462 0.00182462 0.00184546 0.00184546 0.00186629 0.00186629 0.00188711 0.00188711 0.00190792 0.00190792 0.0019287 0.0019287 0.00194946 0.00194946 0.00197019 0.00197019 0.0019909 0.0019909 0.00201156 0.00201156 0.00203219 0.00203219 0.00205279 0.00205279 0.00207334 0.00207334 0.00209385 0.00209385 0.00211432 0.00211432 0.00213474 0.00213474 0.00215511 0.00215511 0.00217544 0.00217544 0.00219571 0.00219571 0.00221594 0.00221594 0.00223611 0.00223611 0.00225623 0.00225623 0.00227629 0.00227629 0.0022963 0.0022963 0.00231625 0.00231625 0.00233615 0.00233615 0.00235599 0.00235599 0.00237577 0.00237577 0.00239549 0.00239549 0.00241515 0.00241515 0.00243475 0.00243475 0.0024543 0.0024543 0.00247378 0.00247378 0.0024932 0.0024932 0.00251256 0.00251256 0.00253185 0.00253185 0.00255109 0.00255109 0.00257026 0.00257026 0.00258937 0.00258937 0.00260842 0.00260842 0.0026274 0.0026274 0.00264632 0.00264632 0.00266518 0.00266518 0.00268397 0.00268397 0.00270269 0.00270269 0.00272136 0.00272136 0.00273995 0.00273995 0.00275849 0.00275849 0.00277695 0.00277695 0.00279535 0.00279535 0.00281369 0.00281369 0.00283196 0.00283196 0.00285017 0.00285017 0.00286831 0.00286831 0.00288638 0.00288638 0.00290439 0.00290439 0.00292233 0.00292233 0.00294021 0.00294021 0.00295802 0.00295802 0.00297577 0.00297577 0.00299344 0.00299344 0.00301106 0.00301106 0.0030286 0.0030286 0.00304608 0.00304608 0.0030635 0.0030635 0.00308085 0.00308085 0.00309813 0.00309813 0.00311534 0.00311534 0.00313249 0.00313249 0.00314958 0.00314958 0.0031666 0.0031666 0.00318355 0.00318355 0.00320043 0.00320043 0.00321726 0.00321726 0.00323401 0.00323401 0.0032507 0.0032507 0.00326732 0.00326732 0.00328388 0.00328388 0.00330038 0.00330038 0.0033168 0.0033168 0.00333317 0.00333317 0.00334946 0.00334946 0.0033657 0.0033657 0.00338186 0.00338186 0.00339797 0.00339797 0.00341401 0.00341401 0.00342998 0.00342998 0.00344589 0.00344589 0.00346174 0.00346174 0.00347752 0.00347752 0.00349324 0.00349324 0.00350889 0.00350889 0.00352448 0.00352448 0.00354001 0.00354001 0.00355547 0.00355547 0.00357087 0.00357087 0.00358621 0.00358621 0.00360149 0.00360149 0.0036167 0.0036167 0.00363185 0.00363185 0.00364694 0.00364694 0.00366197 0.00366197 0.00367693 0.00367693 0.00369183 0.00369183 0.00370667 0.00370667 0.00372145 0.00372145 0.00373617 0.00373617 0.00375083 0.00375083 0.00376542 0.00376542 0.00377996 0.00377996 0.00379444 0.00379444 0.00380885 0.00380885 0.00382321 0.00382321 0.0038375 0.0038375 0.00385174 0.00385174 0.00386591 0.00386591 0.00388003 0.00388003 0.00389409 0.00389409 0.00390809 0.00390809 0.00392203 0.00392203 0.00393591 0.00393591 0.00394974 0.00394974 0.0039635 0.0039635 0.00397721 0.00397721 0.00399086 0.00399086 0.00400445 0.00400445 0.00401799 0.00401799 0.00403147 0.00403147 0.00404489 0.00404489 0.00405826 0.00405826 0.00407157 0.00407157 0.00408482 0.00408482 0.00409802 0.00409802 0.00411116 0.00411116 0.00412425 0.00412425 0.00413728 0.00413728 0.00415025 0.00415025 0.00416317 0.00416317 0.00417604 0.00417604 0.00418885 0.00418885 0.00420161 0.00420161 0.00421431 0.00421431 0.00422696 0.00422696 0.00423956 0.00423956 0.0042521 0.0042521 0.00426459 0.00426459 0.00427703 0.00427703 0.00428941 0.00428941 0.00430174 0.00430174 0.00431402 0.00431402 0.00432625 0.00432625 0.00433843 0.00433843 0.00435055 