# vtk DataFile Version 3.0
#This file was generated by the deal.II library on 2020/9/1 at 14:41:46
ASCII
DATASET UNSTRUCTURED_GRID

POINTS 2048 double
1.5 0 0
1.59619 0 0
1.59619 0 0
1.69238 0 0
1.69238 0 0
1.78857 0 0
1.78857 0 0
1.88477 0 0
1.88477 0 0
1.98096 0 0
1.98096 0 0
2.07715 0 0
2.07715 0 0
2.17334 0 0
2.17334 0 0
2.26953 0 0
2.26953 0 0
2.36572 0 0
2.36572 0 0
2.46191 0 0
2.46191 0 0
2.55811 0 0
2.55811 0 0
2.6543 0 0
2.6543 0 0
2.75049 0 0
2.75049 0 0
2.84668 0 0
2.84668 0 0
2.94287 0 0
2.94287 0 0
3.03906 0 0
3.03906 0 0
3.13525 0 0
3.13525 0 0
3.23145 0 0
3.23145 0 0
3.32764 0 0
3.32764 0 0
3.42383 0 0
3.42383 0 0
3.52002 0 0
3.52002 0 0
3.61621 0 0
3.61621 0 0
3.7124 0 0
3.7124 0 0
3.80859 0 0
3.80859 0 0
3.90479 0 0
3.90479 0 0
4.00098 0 0
4.00098 0 0
4.09717 0 0
4.09717 0 0
4.19336 0 0
4.19336 0 0
4.28955 0 0
4.28955 0 0
4.38574 0 0
4.38574 0 0
4.48193 0 0
4.48193 0 0
4.57812 0 0
4.57812 0 0
4.67432 0 0
4.67432 0 0
4.77051 0 0
4.77051 0 0
4.8667 0 0
4.8667 0 0
4.96289 0 0
4.96289 0 0
5.05908 0 0
5.05908 0 0
5.15527 0 0
5.15527 0 0
5.25146 0 0
5.25146 0 0
5.34766 0 0
5.34766 0 0
5.44385 0 0
5.44385 0 0
5.54004 0 0
5.54004 0 0
5.63623 0 0
5.63623 0 0
5.73242 0 0
5.73242 0 0
5.82861 0 0
5.82861 0 0
5.9248 0 0
5.9248 0 0
6.021 0 0
6.021 0 0
6.11719 0 0
6.11719 0 0
6.21338 0 0
6.21338 0 0
6.30957 0 0
6.30957 0 0
6.40576 0 0
6.40576 0 0
6.50195 0 0
6.50195 0 0
6.59814 0 0
6.59814 0 0
6.69434 0 0
6.69434 0 0
6.79053 0 0
6.79053 0 0
6.88672 0 0
6.88672 0 0
6.98291 0 0
6.98291 0 0
7.0791 0 0
7.0791 0 0
7.17529 0 0
7.17529 0 0
7.27148 0 0
7.27148 0 0
7.36768 0 0
7.36768 0 0
7.46387 0 0
7.46387 0 0
7.56006 0 0
7.56006 0 0
7.65625 0 0
7.65625 0 0
7.75244 0 0
7.75244 0 0
7.84863 0 0
7.84863 0 0
7.94482 0 0
7.94482 0 0
8.04102 0 0
8.04102 0 0
8.13721 0 0
8.13721 0 0
8.2334 0 0
8.2334 0 0
8.32959 0 0
8.32959 0 0
8.42578 0 0
8.42578 0 0
8.52197 0 0
8.52197 0 0
8.61816 0 0
8.61816 0 0
8.71436 0 0
8.71436 0 0
8.81055 0 0
8.81055 0 0
8.90674 0 0
8.90674 0 0
9.00293 0 0
9.00293 0 0
9.09912 0 0
9.09912 0 0
9.19531 0 0
9.19531 0 0
9.2915 0 0
9.2915 0 0
9.3877 0 0
9.3877 0 0
9.48389 0 0
9.48389 0 0
9.58008 0 0
9.58008 0 0
9.67627 0 0
9.67627 0 0
9.77246 0 0
9.77246 0 0
9.86865 0 0
9.86865 0 0
9.96484 0 0
9.96484 0 0
10.061 0 0
10.061 0 0
10.1572 0 0
10.1572 0 0
10.2534 0 0
10.2534 0 0
10.3496 0 0
10.3496 0 0
10.4458 0 0
10.4458 0 0
10.542 0 0
10.542 0 0
10.6382 0 0
10.6382 0 0
10.7344 0 0
10.7344 0 0
10.8306 0 0
10.8306 0 0
10.9268 0 0
10.9268 0 0
11.0229 0 0
11.0229 0 0
11.1191 0 0
11.1191 0 0
11.2153 0 0
11.2153 0 0
11.3115 0 0
11.3115 0 0
11.4077 0 0
11.4077 0 0
11.5039 0 0
11.5039 0 0
11.6001 0 0
11.6001 0 0
11.6963 0 0
11.6963 0 0
11.7925 0 0
11.7925 0 0
11.8887 0 0
11.8887 0 0
11.9849 0 0
11.9849 0 0
12.0811 0 0
12.0811 0 0
12.1772 0 0
12.1772 0 0
12.2734 0 0
12.2734 0 0
12.3696 0 0
12.3696 0 0
12.4658 0 0
12.4658 0 0
12.562 0 0
12.562 0 0
12.6582 0 0
12.6582 0 0
12.7544 0 0
12.7544 0 0
12.8506 0 0
12.8506 0 0
12.9468 0 0
12.9468 0 0
13.043 0 0
13.043 0 0
13.1392 0 0
13.1392 0 0
13.2354 0 0
13.2354 0 0
13.3315 0 0
13.3315 0 0
13.4277 0 0
13.4277 0 0
13.5239 0 0
13.5239 0 0
13.6201 0 0
13.6201 0 0
13.7163 0 0
13.7163 0 0
13.8125 0 0
13.8125 0 0
13.9087 0 0
13.9087 0 0
14.0049 0 0
14.0049 0 0
14.1011 0 0
14.1011 0 0
14.1973 0 0
14.1973 0 0
14.2935 0 0
14.2935 0 0
14.3896 0 0
14.3896 0 0
14.4858 0 0
14.4858 0 0
14.582 0 0
14.582 0 0
14.6782 0 0
14.6782 0 0
14.7744 0 0
14.7744 0 0
14.8706 0 0
14.8706 0 0
14.9668 0 0
14.9668 0 0
15.063 0 0
15.063 0 0
15.1592 0 0
15.1592 0 0
15.2554 0 0
15.2554 0 0
15.3516 0 0
15.3516 0 0
15.4478 0 0
15.4478 0 0
15.5439 0 0
15.5439 0 0
15.6401 0 0
15.6401 0 0
15.7363 0 0
15.7363 0 0
15.8325 0 0
15.8325 0 0
15.9287 0 0
15.9287 0 0
16.0249 0 0
16.0249 0 0
16.1211 0 0
16.1211 0 0
16.2173 0 0
16.2173 0 0
16.3135 0 0
16.3135 0 0
16.4097 0 0
16.4097 0 0
16.5059 0 0
16.5059 0 0
16.6021 0 0
16.6021 0 0
16.6982 0 0
16.6982 0 0
16.7944 0 0
16.7944 0 0
16.8906 0 0
16.8906 0 0
16.9868 0 0
16.9868 0 0
17.083 0 0
17.083 0 0
17.1792 0 0
17.1792 0 0
17.2754 0 0
17.2754 0 0
17.3716 0 0
17.3716 0 0
17.4678 0 0
17.4678 0 0
17.564 0 0
17.564 0 0
17.6602 0 0
17.6602 0 0
17.7563 0 0
17.7563 0 0
17.8525 0 0
17.8525 0 0
17.9487 0 0
17.9487 0 0
18.0449 0 0
18.0449 0 0
18.1411 0 0
18.1411 0 0
18.2373 0 0
18.2373 0 0
18.3335 0 0
18.3335 0 0
18.4297 0 0
18.4297 0 0
18.5259 0 0
18.5259 0 0
18.6221 0 0
18.6221 0 0
18.7183 0 0
18.7183 0 0
18.8145 0 0
18.8145 0 0
18.9106 0 0
18.9106 0 0
19.0068 0 0
19.0068 0 0
19.103 0 0
19.103 0 0
19.1992 0 0
19.1992 0 0
19.2954 0 0
19.2954 0 0
19.3916 0 0
19.3916 0 0
19.4878 0 0
19.4878 0 0
19.584 0 0
19.584 0 0
19.6802 0 0
19.6802 0 0
19.7764 0 0
19.7764 0 0
19.8726 0 0
19.8726 0 0
19.9688 0 0
19.9688 0 0
20.0649 0 0
20.0649 0 0
20.1611 0 0
20.1611 0 0
20.2573 0 0
20.2573 0 0
20.3535 0 0
20.3535 0 0
20.4497 0 0
20.4497 0 0
20.5459 0 0
20.5459 0 0
20.6421 0 0
20.6421 0 0
20.7383 0 0
20.7383 0 0
20.8345 0 0
20.8345 0 0
20.9307 0 0
20.9307 0 0
21.0269 0 0
21.0269 0 0
21.123 0 0
21.123 0 0
21.2192 0 0
21.2192 0 0
21.3154 0 0
21.3154 0 0
21.4116 0 0
21.4116 0 0
21.5078 0 0
21.5078 0 0
21.604 0 0
21.604 0 0
21.7002 0 0
21.7002 0 0
21.7964 0 0
21.7964 0 0
21.8926 0 0
21.8926 0 0
21.9888 0 0
21.9888 0 0
22.085 0 0
22.085 0 0
22.1812 0 0
22.1812 0 0
22.2773 0 0
22.2773 0 0
22.3735 0 0
22.3735 0 0
22.4697 0 0
22.4697 0 0
22.5659 0 0
22.5659 0 0
22.6621 0 0
22.6621 0 0
22.7583 0 0
22.7583 0 0
22.8545 0 0
22.8545 0 0
22.9507 0 0
22.9507 0 0
23.0469 0 0
23.0469 0 0
23.1431 0 0
23.1431 0 0
23.2393 0 0
23.2393 0 0
23.3354 0 0
23.3354 0 0
23.4316 0 0
23.4316 0 0
23.5278 0 0
23.5278 0 0
23.624 0 0
23.624 0 0
23.7202 0 0
23.7202 0 0
23.8164 0 0
23.8164 0 0
23.9126 0 0
23.9126 0 0
24.0088 0 0
24.0088 0 0
24.105 0 0
24.105 0 0
24.2012 0 0
24.2012 0 0
24.2974 0 0
24.2974 0 0
24.3936 0 0
24.3936 0 0
24.4897 0 0
24.4897 0 0
24.5859 0 0
24.5859 0 0
24.6821 0 0
24.6821 0 0
24.7783 0 0
24.7783 0 0
24.8745 0 0
24.8745 0 0
24.9707 0 0
24.9707 0 0
25.0669 0 0
25.0669 0 0
25.1631 0 0
25.1631 0 0
25.2593 0 0
25.2593 0 0
25.3555 0 0
25.3555 0 0
25.4517 0 0
25.4517 0 0
25.5479 0 0
25.5479 0 0
25.644 0 0
25.644 0 0
25.7402 0 0
25.7402 0 0
25.8364 0 0
25.8364 0 0
25.9326 0 0
25.9326 0 0
26.0288 0 0
26.0288 0 0
26.125 0 0
26.125 0 0
26.2212 0 0
26.2212 0 0
26.3174 0 0
26.3174 0 0
26.4136 0 0
26.4136 0 0
26.5098 0 0
26.5098 0 0
26.606 0 0
26.606 0 0
26.7021 0 0
26.7021 0 0
26.7983 0 0
26.7983 0 0
26.8945 0 0
26.8945 0 0
26.9907 0 0
26.9907 0 0
27.0869 0 0
27.0869 0 0
27.1831 0 0
27.1831 0 0
27.2793 0 0
27.2793 0 0
27.3755 0 0
27.3755 0 0
27.4717 0 0
27.4717 0 0
27.5679 0 0
27.5679 0 0
27.6641 0 0
27.6641 0 0
27.7603 0 0
27.7603 0 0
27.8564 0 0
27.8564 0 0
27.9526 0 0
27.9526 0 0
28.0488 0 0
28.0488 0 0
28.145 0 0
28.145 0 0
28.2412 0 0
28.2412 0 0
28.3374 0 0
28.3374 0 0
28.4336 0 0
28.4336 0 0
28.5298 0 0
28.5298 0 0
28.626 0 0
28.626 0 0
28.7222 0 0
28.7222 0 0
28.8184 0 0
28.8184 0 0
28.9146 0 0
28.9146 0 0
29.0107 0 0
29.0107 0 0
29.1069 0 0
29.1069 0 0
29.2031 0 0
29.2031 0 0
29.2993 0 0
29.2993 0 0
29.3955 0 0
29.3955 0 0
29.4917 0 0
29.4917 0 0
29.5879 0 0
29.5879 0 0
29.6841 0 0
29.6841 0 0
29.7803 0 0
29.7803 0 0
29.8765 0 0
29.8765 0 0
29.9727 0 0
29.9727 0 0
30.0688 0 0
30.0688 0 0
30.165 0 0
30.165 0 0
30.2612 0 0
30.2612 0 0
30.3574 0 0
30.3574 0 0
30.4536 0 0
30.4536 0 0
30.5498 0 0
30.5498 0 0
30.646 0 0
30.646 0 0
30.7422 0 0
30.7422 0 0
30.8384 0 0
30.8384 0 0
30.9346 0 0
30.9346 0 0
31.0308 0 0
31.0308 0 0
31.127 0 0
31.127 0 0
31.2231 0 0
31.2231 0 0
31.3193 0 0
31.3193 0 0
31.4155 0 0
31.4155 0 0
31.5117 0 0
31.5117 0 0
31.6079 0 0
31.6079 0 0
31.7041 0 0
31.7041 0 0
31.8003 0 0
31.8003 0 0
31.8965 0 0
31.8965 0 0
31.9927 0 0
31.9927 0 0
32.0889 0 0
32.0889 0 0
32.1851 0 0
32.1851 0 0
32.2812 0 0
32.2812 0 0
32.3774 0 0
32.3774 0 0
32.4736 0 0
32.4736 0 0
32.5698 0 0
32.5698 0 0
32.666 0 0
32.666 0 0
32.7622 0 0
32.7622 0 0
32.8584 0 0
32.8584 0 0
32.9546 0 0
32.9546 0 0
33.0508 0 0
33.0508 0 0
33.147 0 0
33.147 0 0
33.2432 0 0
33.2432 0 0
33.3394 0 0
33.3394 0 0
33.4355 0 0
33.4355 0 0
33.5317 0 0
33.5317 0 0
33.6279 0 0
33.6279 0 0
33.7241 0 0
33.7241 0 0
33.8203 0 0
33.8203 0 0
33.9165 0 0
33.9165 0 0
34.0127 0 0
34.0127 0 0
34.1089 0 0
34.1089 0 0
34.2051 0 0
34.2051 0 0
34.3013 0 0
34.3013 0 0
34.3975 0 0
34.3975 0 0
34.4937 0 0
34.4937 0 0
34.5898 0 0
34.5898 0 0
34.686 0 0
34.686 0 0
34.7822 0 0
34.7822 0 0
34.8784 0 0
34.8784 0 0
34.9746 0 0
34.9746 0 0
35.0708 0 0
35.0708 0 0
35.167 0 0
35.167 0 0
35.2632 0 0
35.2632 0 0
35.3594 0 0
35.3594 0 0
35.4556 0 0
35.4556 0 0
35.5518 0 0
35.5518 0 0
35.6479 0 0
35.6479 0 0
35.7441 0 0
35.7441 0 0
35.8403 0 0
35.8403 0 0
35.9365 0 0
35.9365 0 0
36.0327 0 0
36.0327 0 0
36.1289 0 0
36.1289 0 0
36.2251 0 0
36.2251 0 0
36.3213 0 0
36.3213 0 0
36.4175 0 0
36.4175 0 0
36.5137 0 0
36.5137 0 0
36.6099 0 0
36.6099 0 0
36.7061 0 0
36.7061 0 0
36.8022 0 0
36.8022 0 0
36.8984 0 0
36.8984 0 0
36.9946 0 0
36.9946 0 0
37.0908 0 0
37.0908 0 0
37.187 0 0
37.187 0 0
37.2832 0 0
37.2832 0 0
37.3794 0 0
37.3794 0 0
37.4756 0 0
37.4756 0 0
37.5718 0 0
37.5718 0 0
37.668 0 0
37.668 0 0
37.7642 0 0
37.7642 0 0
37.8604 0 0
37.8604 0 0
37.9565 0 0
37.9565 0 0
38.0527 0 0
38.0527 0 0
38.1489 0 0
38.1489 0 0
38.2451 0 0
38.2451 0 0
38.3413 0 0
38.3413 0 0
38.4375 0 0
38.4375 0 0
38.5337 0 0
38.5337 0 0
38.6299 0 0
38.6299 0 0
38.7261 0 0
38.7261 0 0
38.8223 0 0
38.8223 0 0
38.9185 0 0
38.9185 0 0
39.0146 0 0
39.0146 0 0
39.1108 0 0
39.1108 0 0
39.207 0 0
39.207 0 0
39.3032 0 0
39.3032 0 0
39.3994 0 0
39.3994 0 0
39.4956 0 0
39.4956 0 0
39.5918 0 0
39.5918 0 0
39.688 0 0
39.688 0 0
39.7842 0 0
39.7842 0 0
39.8804 0 0
39.8804 0 0
39.9766 0 0
39.9766 0 0
40.0728 0 0
40.0728 0 0
40.1689 0 0
40.1689 0 0
40.2651 0 0
40.2651 0 0
40.3613 0 0
40.3613 0 0
40.4575 0 0
40.4575 0 0
40.5537 0 0
40.5537 0 0
40.6499 0 0
40.6499 0 0
40.7461 0 0
40.7461 0 0
40.8423 0 0
40.8423 0 0
40.9385 0 0
40.9385 0 0
41.0347 0 0
41.0347 0 0
41.1309 0 0
41.1309 0 0
41.2271 0 0
41.2271 0 0
[...]
POINT_DATA 2048
SCALARS solution_0 double 1
LOOKUP_TABLE default
0.029243 0.0287152 0.0287152 0.0282068 0.0282068 0.0277172 0.0277172 0.0272459 0.0272459 0.026792 0.026792 0.0263547 0.0263547 0.0259334 0.0259334 0.0255273 0.0255273 0.0251359 0.0251359 0.0247585 0.0247585 0.0243946 0.0243946 0.0240438 0.0240438 0.0237055 0.0237055 0.0233794 0.0233794 0.0230651 0.0230651 0.0227622 0.0227622 0.0224705 0.0224705 0.0221895 0.0221895 0.021919 0.021919 0.0216587 0.0216587 0.0214084 0.0214084 0.0211677 0.0211677 0.0209365 0.0209365 0.0207145 0.0207145 0.0205014 0.0205014 0.020297 0.020297 0.0201012 0.0201012 0.0199136 0.0199136 0.0197341 0.0197341 0.0195625 0.0195625 0.0193985 0.0193985 0.0192418 0.0192418 0.0190924 0.0190924 0.01895 0.01895 0.0188143 0.0188143 0.0186852 0.0186852 0.0185625 0.0185625 0.0184458 0.0184458 0.0183352 0.0183352 0.0182302 0.0182302 0.0181308 0.0181308 0.0180366 0.0180366 0.0179476 0.0179476 0.0178634 0.0178634 0.017784 0.017784 0.017709 0.017709 0.0176383 0.0176383 0.0175717 0.0175717 0.017509 0.017509 0.01745 0.01745 0.0173945 0.0173945 0.0173424 0.0173424 0.0172933 0.0172933 0.0172472 0.0172472 0.0172039 0.0172039 0.0171631 0.0171631 0.0171248 0.0171248 0.0170888 0.0170888 0.0170548 0.0170548 0.0170228 0.0170228 0.0169926 0.0169926 0.016964 0.016964 0.0169369 0.0169369 0.0169111 0.0169111 0.0168866 0.0168866 0.0168631 0.0168631 0.0168406 0.0168406 0.016819 0.016819 0.0167981 0.0167981 0.0167778 0.0167778 0.016758 0.016758 0.0167387 0.0167387 0.0167197 0.0167197 0.016701 0.016701 0.0166824 0.0166824 0.0166639 0.0166639 0.0166455 0.0166455 0.016627 0.016627 0.0166084 0.0166084 0.0165897 0.0165897 0.0165708 0.0165708 0.0165516 0.0165516 0.0165321 0.0165321 0.0165123 0.0165123 0.0164922 0.0164922 0.0164717 0.0164717 0.0164508 0.0164508 0.0164294 0.0164294 0.0164077 0.0164077 0.0163854 0.0163854 0.0163628 0.0163628 0.0163396 0.0163396 0.016316 0.016316 0.016292 0.016292 0.0162675 0.0162675 0.0162425 0.0162425 0.0162172 0.0162172 0.0161913 0.0161913 0.0161651 0.0161651 0.0161385 0.0161385 0.0161115 0.0161115 0.0160842 0.0160842 0.0160565 0.0160565 0.0160285 0.0160285 0.0160002 0.0160002 0.0159717 0.0159717 0.0159429 0.0159429 0.0159139 0.0159139 0.0158848 0.0158848 0.0158554 0.0158554 0.015826 0.015826 0.0157964 0.0157964 0.0157668 0.0157668 0.0157372 0.0157372 0.0157075 0.0157075 0.0156779 0.0156779 0.0156482 0.0156482 0.0156187 0.0156187 0.0155893 0.0155893 0.01556 0.01556 0.0155309 0.0155309 0.0155019 0.0155019 0.0154732 0.0154732 0.0154447 0.0154447 0.0154164 0.0154164 0.0153885 0.0153885 0.0153609 0.0153609 0.0153335 0.0153335 0.0153066 0.0153066 0.01528 0.01528 0.0152539 0.0152539 0.0152281 0.0152281 0.0152028 0.0152028 0.0151779 0.0151779 0.0151536 0.0151536 0.0151297 0.0151297 0.0151063 0.0151063 0.0150834 0.0150834 0.0150611 0.0150611 0.0150393 0.0150393 0.0150181 0.0150181 0.0149975 0.0149975 0.0149774 0.0149774 0.0149579 0.0149579 0.0149391 0.0149391 0.0149209 0.0149209 0.0149032 0.0149032 0.0148863 0.0148863 0.0148699 0.0148699 0.0148542 0.0148542 0.0148392 0.0148392 0.0148248 0.0148248 0.0148111 0.0148111 0.0147981 0.0147981 0.0147857 0.0147857 0.014774 0.014774 0.014763 0.014763 0.0147527 0.0147527 0.014743 0.014743 0.0147341 0.0147341 0.0147258 0.0147258 0.0147183 0.0147183 0.0147114 0.0147114 0.0147052 0.0147052 0.0146997 0.0146997 0.014695 0.014695 0.0146909 0.0146909 0.0146875 0.0146875 0.0146848 0.0146848 0.0146828 0.0146828 0.0146815 0.0146815 0.0146809 0.0146809 0.014681 0.014681 0.0146818 0.0146818 0.0146833 0.0146833 0.0146855 0.0146855 0.0146884 0.0146884 0.014692 0.014692 0.0146962 0.0146962 0.0147012 0.0147012 0.0147068 0.0147068 0.0147132 0.0147132 0.0147202 0.0147202 0.0147279 0.0147279 0.0147363 0.0147363 0.0147453 0.0147453 0.0147551 0.0147551 0.0147655 0.0147655 0.0147766 0.0147766 0.0147884 0.0147884 0.0148008 0.0148008 0.014814 0.014814 0.0148277 0.0148277 0.0148422 0.0148422 0.0148573 0.0148573 0.0148731 0.0148731 0.0148895 0.0148895 0.0149065 0.0149065 0.0149243 0.0149243 0.0149426 0.0149426 0.0149616 0.0149616 0.0149813 0.0149813 0.0150015 0.0150015 0.0150224 0.0150224 0.015044 0.015044 0.0150661 0.0150661 0.0150889 0.0150889 0.0151122 0.0151122 0.0151362 0.0151362 0.0151608 0.0151608 0.0151859 0.0151859 0.0152116 0.0152116 0.0152379 0.0152379 0.0152648 0.0152648 0.0152922 0.0152922 0.0153202 0.0153202 0.0153487 0.0153487 0.0153777 0.0153777 0.0154073 0.0154073 0.0154374 0.0154374 0.0154679 0.0154679 0.0154989 0.0154989 0.0155305 0.0155305 0.0155624 0.0155624 0.0155948 0.0155948 0.0156277 0.0156277 0.0156609 0.0156609 0.0156946 0.0156946 0.0157286 0.0157286 0.015763 0.015763 0.0157977 0.0157977 0.0158328 0.0158328 0.0158682 0.0158682 0.0159038 0.0159038 0.0159397 0.0159397 0.0159759 0.0159759 0.0160123 0.0160123 0.0160489 0.0160489 0.0160857 0.0160857 0.0161226 0.0161226 0.0161597 0.0161597 0.0161968 0.0161968 0.0162341 0.0162341 0.0162714 0.0162714 0.0163087 0.0163087 0.016346 0.016346 0.0163833 0.0163833 0.0164205 0.0164205 0.0164576 0.0164576 0.0164946 0.0164946 0.0165315 0.0165315 0.0165682 0.0165682 0.0166047 0.0166047 0.0166409 0.0166409 0.0166769 0.0166769 0.0167126 0.0167126 0.0167479 0.0167479 0.016783 0.016783 0.0168176 0.0168176 0.0168518 0.0168518 0.0168856 0.0168856 0.0169189 0.0169189 0.0169517 0.0169517 0.0169841 0.0169841 0.0170159 0.0170159 0.0170471 0.0170471 0.0170778 0.0170778 0.0171079 0.0171079 0.0171374 0.0171374 0.0171662 0.0171662 0.0171945 0.0171945 0.0172221 0.0172221 0.017249 0.017249 0.0172754 0.0172754 0.0173011 0.0173011 0.0173262 0.0173262 0.0173507 0.0173507 0.0173746 0.0173746 0.0173979 0.0173979 0.0174206 0.0174206 0.0174429 0.0174429 0.0174647 0.0174647 0.017486 0.017486 0.017507 0.017507 0.0175277 0.0175277 0.0175481 0.0175481 0.0175684 0.0175684 0.0175886 0.0175886 0.0176088 0.0176088 0.0176291 0.0176291 0.0176496 0.0176496 0.0176705 0.0176705 0.0176919 0.0176919 0.0177139 0.0177139 0.0177367 0.0177367 0.0177606 0.0177606 0.0177855 0.0177855 0.0178119 0.0178119 0.0178398 0.0178398 0.0178695 0.0178695 0.0179013 0.0179013 0.0179354 0.0179354 0.0179721 0.0179721 0.0180117 0.0180117 0.0180545 0.0180545 0.0181009 0.0181009 0.0181512 0.0181512 0.0182058 0.0182058 0.0182651 0.0182651 0.0183295 0.0183295 0.0183995 0.0183995 0.0184755 0.0184755 0.018558 0.018558 0.0186475 0.0186475 0.0187446 0.0187446 0.0188498 0.0188498 0.0189637 0.0189637 0.0190869 0.0190869 0.0192202 0.0192202 0.019364 0.019364 0.0195193 0.0195193 0.0196866 0.0196866 0.0198668 0.0198668 0.0200606 0.0200606 0.0202689 0.0202689 0.0204924 0.0204924 0.0207322 0.0207322 0.0209891 0.0209891 0.021264 0.021264 0.021558 0.021558 0.021872 0.021872 0.022207 0.022207 0.0225643 0.0225643 0.0229448 0.0229448 0.0233497 0.0233497 0.0237803 0.0237803 0.0242376 0.0242376 0.024723 0.024723 0.0252376 0.0252376 0.0257829 0.0257829 0.0263602 0.0263602 0.0269708 0.0269708 0.027616 0.027616 0.0282975 0.0282975 0.0290166 0.0290166 0.0297747 0.0297747 0.0305735 0.0305735 0.0314144 0.0314144 0.0322991 0.0322991 0.0332291 0.0332291 0.0342061 0.0342061 0.0352316 0.0352316 0.0363074 0.0363074 0.0374351 0.0374351 0.0386165 0.0386165 0.0398532 0.0398532 0.041147 0.041147 0.0424997 0.0424997 0.043913 0.043913 0.0453886 0.0453886 0.0469284 0.0469284 0.048534 0.048534 0.0502074 0.0502074 0.0519503 0.0519503 0.0537644 0.0537644 0.0556516 0.0556516 0.0576136 0.0576136 0.0596521 0.0596521 0.0617689 0.0617689 0.0639657 0.0639657 0.0662442 0.0662442 0.0686061 0.0686061 0.071053 0.071053 0.0735866 0.0735866 0.0762084 0.0762084 0.07892 0.07892 0.0817228 0.0817228 0.0846184 0.0846184 0.0876081 0.0876081 0.0906933 0.0906933 0.0938753 0.0938753 0.0971553 0.0971553 0.100534 0.100534 0.104014 0.104014 0.107595 0.107595 0.111278 0.111278 0.115064 0.115064 0.118954 0.118954 0.122948 0.122948 0.127048 0.127048 0.131253 0.131253 0.135564 0.135564 0.139981 0.139981 0.144505 0.144505 0.149135 0.149135 0.153872 0.153872 0.158714 0.158714 0.163663 0.163663 0.168716 0.168716 0.173874 0.173874 0.179136 0.179136 0.184501 0.184501 0.189968 0.189968 0.195535 0.195535 0.201202 0.201202 0.206966 0.206966 0.212827 0.212827 0.218781 0.218781 0.224828 0.224828 0.230964 0.230964 0.237188 0.237188 0.243496 0.243496 0.249887 0.249887 0.256357 0.256357 0.262903 0.262903 0.269521 0.269521 0.276209 0.276209 0.282962 0.282962 0.289777 0.289777 0.29665 0.29665 0.303576 0.303576 0.31055 0.31055 0.317569 0.317569 0.324627 0.324627 0.33172 0.33172 0.338842 0.338842 0.345987 0.345987 0.353151 0.353151 0.360327 0.360327 0.36751 0.36751 0.374694 0.374694 0.381871 0.381871 0.389037 0.389037 0.396183 0.396183 0.403305 0.403305 0.410393 0.410393 0.417443 0.417443 0.424445 0.424445 0.431394 0.431394 0.438281 0.438281 0.445099 0.445099 0.45184 0.45184 0.458497 0.458497 0.465062 0.465062 0.471526 0.471526 0.477881 0.477881 0.48412 0.48412 0.490234 0.490234 0.496215 0.496215 0.502054 0.502054 0.507743 0.507743 0.513274 0.513274 0.518638 0.518638 0.523827 0.523827 0.528833 0.528833 0.533646 0.533646 0.538259 0.538259 0.542663 0.542663 0.54685 0.54685 0.550812 0.550812 0.55454 0.55454 0.558026 0.558026 0.561262 0.561262 0.564241 0.564241 0.566955 0.566955 0.569395 0.569395 0.571555 0.571555 0.573427 0.573427 0.575003 0.575003 0.576278 0.576278 0.577243 0.577243 0.577893 0.577893 0.57822 0.57822 0.578219 0.578219 0.577884 0.577884 0.577209 0.577209 0.576188 0.576188 0.574816 0.574816 0.573089 0.573089 0.571002 0.571002 0.56855 0.56855 0.565729 0.565729 0.562537 0.562537 0.558968 0.558968 0.555021 0.555021 0.550693 0.550693 0.545981 0.545981 0.540883 0.540883 0.535398 0.535398 0.529524 0.529524 0.523261 0.523261 0.516608 0.516608 0.509565 0.509565 0.502133 0.502133 0.494312 0.494312 0.486103 0.486103 0.477507 0.477507 0.468528 0.468528 0.459166 0.459166 0.449425 0.449425 0.439308 0.439308 0.428819 0.428819 0.417961 0.417961 0.406739 0.406739 0.395157 0.395157 0.383222 0.383222 0.370938 0.370938 0.358311 0.358311 0.345349 0.345349 0.332057 0.332057 0.318443 0.318443 0.304515 0.304515 0.29028 0.29028 0.275747 0.275747 0.260924 0.260924 0.24582 0.24582 0.230445 0.230445 0.214809 0.214809 0.198921 0.198921 0.182791 0.182791 0.166431 0.166431 0.149851 0.149851 0.133063 0.133063 0.116077 0.116077 0.0989054 0.0989054 0.0815603 0.0815603 0.0640538 0.0640538 0.0463981 0.0463981 0.0286059 0.0286059 0.0106897 0.0106897 -0.00733738 -0.00733738 -0.0254624 -0.0254624 -0.0436721 -0.0436721 -0.0619533 -0.0619533 -0.0802926 -0.0802926 -0.0986763 -0.0986763 -0.117091 -0.117091 -0.135523 -0.135523 -0.153959 -0.153959 -0.172385 -0.172385 -0.190787 -0.190787 -0.209151 -0.209151 -0.227465 -0.227465 -0.245714 -0.245714 -0.263885 -0.263885 -0.281964 -0.281964 -0.299938 -0.299938 -0.317794 -0.317794 -0.335518 -0.335518 -0.353098 -0.353098 -0.370521 -0.370521 -0.387773 -0.387773 -0.404843 -0.404843 -0.421718 -0.421718 -0.438386 -0.438386 -0.454835 -0.454835 -0.471054 -0.471054 -0.48703 -0.48703 -0.502754 -0.502754 -0.518214 -0.518214 -0.5334 -0.5334 -0.548302 -0.548302 -0.562908 -0.562908 -0.577211 -0.577211 -0.5912 -0.5912 -0.604868 -0.604868 -0.618204 -0.618204 -0.631201 -0.631201 -0.643851 -0.643851 -0.656147 -0.656147 -0.668081 -0.668081 -0.679648 -0.679648 -0.690839 -0.690839 -0.70165 -0.70165 -0.712076 -0.712076 -0.72211 -0.72211 -0.731748 -0.731748 -0.740987 -0.740987 -0.749821 -0.749821 -0.758248 -0.758248 -0.766265 -0.766265 -0.773869 -0.773869 -0.781057 -0.781057 -0.787828 -0.787828 -0.794181 -0.794181 -0.800114 -0.800114 -0.805627 -0.805627 -0.81072 -0.81072 -0.815393 -0.815393 -0.819646 -0.819646 -0.823481 -0.823481 -0.826899 -0.826899 -0.829902 -0.829902 -0.832492 -0.832492 -0.834671 -0.834671 -0.836443 -0.836443 -0.83781 -0.83781 -0.838776 -0.838776 -0.839345 -0.839345 -0.839522 -0.839522 -0.83931 -0.83931 -0.838715 -0.838715 -0.837742 -0.837742 -0.836396 -0.836396 -0.834683 -0.834683 -0.832609 -0.832609 -0.830181 -0.830181 -0.827404 -0.827404 -0.824285 -0.824285 -0.820832 -0.820832 -0.817052 -0.817052 -0.812952 -0.812952 -0.808539 -0.808539 -0.803821 -0.803821 -0.798807 -0.798807 -0.793504 -0.793504 -0.78792 -0.78792 -0.782064 -0.782064 -0.775945 -0.775945 -0.76957 -0.76957 -0.762949 -0.762949 -0.75609 -0.75609 -0.749002 -0.749002 -0.741695 -0.741695 -0.734176 -0.734176 -0.726454 -0.726454 -0.71854 -0.71854 -0.710442 -0.710442 -0.702168 -0.702168 -0.693729 -0.693729 -0.685132 -0.685132 -0.676387 -0.676387 -0.667503 -0.667503 -0.658488 -0.658488 -0.649353 -0.649353 -0.640104 -0.640104 -0.630752 -0.630752 -0.621304 -0.621304 -0.611769 -0.611769 -0.602156 -0.602156 -0.592473 -0.592473 -0.582729 -0.582729 -0.57293 -0.57293 -0.563086 -0.563086 -0.553204 -0.553204 -0.543292 -0.543292 -0.533357 -0.533357 -0.523407 -0.523407 -0.51345 -0.51345 -0.503491 -0.503491 -0.493539 -0.493539 -0.4836 -0.4836 -0.47368 -0.47368 -0.463786 -0.463786 -0.453924 -0.453924 -0.444101 -0.444101 -0.434322 -0.434322 -0.424593 -0.424593 -0.414919 -0.414919 -0.405306 -0.405306 -0.395759 -0.395759 -0.386283 -0.386283 -0.376882 -0.376882 -0.367562 -0.367562 -0.358326 -0.358326 -0.349178 -0.349178 -0.340124 -0.340124 -0.331165 -0.331165 -0.322307 -0.322307 -0.313552 -0.313552 -0.304904 -0.304904 -0.296365 -0.296365 -0.287939 -0.287939 -0.279628 -0.279628 -0.271435 -0.271435 -0.263362 -0.263362 -0.255411 -0.255411 -0.247584 -0.247584 -0.239883 -0.239883 -0.232309 -0.232309 -0.224864 -0.224864 -0.21755 -0.21755 -0.210366 -0.210366 -0.203315 -0.203315 -0.196397 -0.196397 -0.189613 -0.189613 -0.182963 -0.182963 -0.176448 -0.176448 -0.170068 -0.170068 -0.163823 -0.163823 -0.157712 -0.157712 -0.151737 -0.151737 -0.145897 -0.145897 -0.14019 -0.14019 -0.134618 -0.134618 -0.129179 -0.129179 -0.123872 -0.123872 -0.118697 -0.118697 -0.113653 -0.113653 -0.108739 -0.108739 -0.103954 -0.103954 -0.0992966 -0.0992966 -0.0947655 -0.0947655 -0.0903597 -0.0903597 -0.0860777 -0.0860777 -0.0819181 -0.0819181 -0.0778794 -0.0778794 -0.07396 -0.07396 -0.0701584 -0.0701584 -0.0664728 -0.0664728 -0.0629017 -0.0629017 -0.0594431 -0.0594431 -0.0560954 -0.0560954 -0.0528568 -0.0528568 -0.0497253 -0.0497253 -0.046699 -0.046699 -0.0437761 -0.0437761 -0.0409547 -0.0409547 -0.0382327 -0.0382327 -0.0356082 -0.0356082 -0.0330792 -0.0330792 -0.0306437 -0.0306437 -0.0282997 -0.0282997 -0.0260452 -0.0260452 -0.0238781 -0.0238781 -0.0217965 -0.0217965 -0.0197983 -0.0197983 -0.0178815 -0.0178815 -0.0160441 -0.0160441 -0.0142841 -0.0142841 -0.0125995 -0.0125995 -0.0109884 -0.0109884 -0.00944867 -0.00944867 -0.00797846 -0.00797846 -0.00657582 -0.00657582 -0.00523882 -0.00523882 -0.00396558 -0.00396558 -0.00275421 -0.00275421 -0.00160285 -0.00160285 -0.000509687 -0.000509687 0.000527102 0.000527102 0.00150929 0.00150929 0.00243864 0.00243864 0.00331688 0.00331688 0.0041457 0.0041457 0.00492678 0.00492678 0.00566175 0.00566175 0.00635224 0.00635224 0.00699982 0.00699982 0.00760603 0.00760603 0.00817241 0.00817241 0.00870042 0.00870042 0.00919154 0.00919154 0.00964718 0.00964718 0.0100687 0.0100687 0.0104575 0.0104575 0.0108149 0.0108149 0.0111422 0.0111422 0.0114406 0.0114406 0.0117114 0.0117114 0.0119558 0.0119558 0.0121749 0.0121749 0.0123698 0.0123698 0.0125416 0.0125416 0.0126915 0.0126915 0.0128205 0.0128205 0.0129294 0.0129294 0.0130194 0.0130194 0.0130914 0.0130914 0.0131462 0.0131462 0.0131848 0.0131848 0.013208 0.013208 0.0132167 0.0132167 0.0132115 0.0132115 0.0131934 0.0131934 0.013163 0.013163 0.013121 0.013121 0.0130682 0.0130682 0.0130052 0.0130052 0.0129327 0.0129327 0.0128512 0.0128512 0.0127613 0.0127613 0.0126637 0.0126637 0.0125588 0.0125588 0.0124471 0.0124471 0.0123292 0.0123292 0.0122056 0.0122056 0.0120767 0.0120767 0.0119429 0.0119429 0.0118046 0.0118046 0.0116623 0.0116623 0.0115163 0.0115163 0.011367 0.011367 0.0112147 0.0112147 0.0110598 0.0110598 0.0109026 0.0109026 0.0107433 0.0107433 0.0105822 0.0105822 0.0104197 0.0104197 0.0102559 0.0102559 0.0100911 0.0100911 0.00992553 0.00992553 0.00975937 0.00975937 0.00959284 0.00959284 0.00942612 0.00942612 0.00925939 0.00925939 0.00909282 0.00909282 0.00892654 0.00892654 0.00876072 0.00876072 0.00859549 0.00859549 0.00843096 0.00843096 0.00826726 0.00826726 0.0081045 0.0081045 0.00794277 0.00794277 0.00778217 0.00778217 0.00762279 0.00762279 0.00746469 0.00746469 0.00730796 0.00730796 0.00715265 0.00715265 0.00699884 0.00699884 0.00684656 0.00684656 0.00669587 0.00669587 0.00654682 0.00654682 0.00639943 0.00639943 0.00625374 0.00625374 0.00610979 0.00610979 0.00596759 0.00596759 0.00582717 0.00582717 0.00568854 0.00568854 0.00555172 0.00555172 0.00541673 0.00541673 0.00528355 0.00528355 0.00515221 0.00515221 0.0050227 0.0050227 0.00489503 0.00489503 0.00476918 0.00476918 0.00464516 0.00464516 0.00452296 0.00452296 0.00440256 0.00440256 0.00428397 0.00428397 0.00416716 0.00416716 0.00405213 0.00405213 0.00393886 0.00393886 0.00382733 0.00382733 0.00371752 0.00371752 0.00360942 0.00360942 0.00350302 0.00350302 0.00339828 0.00339828 0.00329518 0.00329518 0.00319372 0.00319372 0.00309386 0.00309386 0.00299559 0.00299559 0.00289887 0.00289887 0.00280369 0.00280369 0.00271003 0.00271003 0.00261786 0.00261786 0.00252715 0.00252715 0.00243789 0.00243789 0.00235005 0.00235005 0.0022636 0.0022636 0.00217853 0.00217853 0.0020948 0.0020948 0.0020124 0.0020124 0.00193129 0.00193129 0.00185147 0.00185147 0.00177289 0.00177289 0.00169555 0.00169555 0.00161941 0.00161941 0.00154446 0.00154446 0.00147066 0.00147066 0.00139801 0.00139801 0.00132648 0.00132648 0.00125603 0.00125603 0.00118667 0.00118667 0.00111835 0.00111835 0.00105107 0.00105107 0.000984802 0.000984802 0.000919523 0.000919523 0.000855216 0.000855216 0.000791861 0.000791861 0.00072944 0.00072944 0.000667933 0.000667933 0.000607323 0.000607323 0.00054759 0.00054759 0.000488719 0.000488719 0.00043069 0.00043069 0.000373488 0.000373488 0.000317095 0.000317095 0.000261496 0.000261496 0.000206675 0.000206675 0.000152616 0.000152616 9.93029e-05 9.93029e-05 4.67222e-05 4.67222e-05 -5.14121e-06 -5.14121e-06 -5.63015e-05 -5.63015e-05 -0.000106773 -0.000106773 -0.000156568 -0.000156568 -0.000205702 -0.000205702 -0.000254186 -0.000254186 -0.000302034 -0.000302034 -0.000349257 -0.000349257 -0.000395869 -0.000395869 -0.000441881 -0.000441881 -0.000487304 -0.000487304 -0.000532151 -0.000532151 -0.000576431 -0.000576431 -0.000620156 -0.000620156 -0.000663337 -0.000663337 -0.000705983 -0.000705983 -0.000748106 -0.000748106 -0.000789714 -0.000789714 -0.000830817 -0.000830817 -0.000871426 -0.000871426 -0.000911548 -0.000911548 -0.000951194 -0.000951194 -0.000990372 -0.000990372 -0.00102909 -0.00102909 -0.00106736 -0.00106736 -0.00110518 -0.00110518 -0.00114257 -0.00114257 -0.00117954 -0.00117954 -0.00121608 -0.00121608 -0.00125222 -0.00125222 -0.00128795 -0.00128795 -0.00132328 -0.00132328 -0.00135822 -0.00135822 -0.00139278 -0.00139278 -0.00142697 -0.00142697 -0.00146078 -0.00146078 -0.00149423 -0.00149423 -0.00152732 -0.00152732 -0.00156007 -0.00156007 -0.00159247 -0.00159247 -0.00162452 -0.00162452 -0.00165625 -0.00165625 -0.00168765 -0.00168765 -0.00171872 -0.00171872 -0.00174947 -0.00174947 -0.00177992 -0.00177992 -0.00181005 -0.00181005 -0.00183988 -0.00183988 -0.00186941 -0.00186941 -0.00189865 -0.00189865 -0.00192759 -0.00192759 -0.00195625 -0.00195625 -0.00198462 -0.00198462 -0.00201272 -0.00201272 -0.00204053 -0.00204053 -0.00206807 -0.00206807 -0.00209534 -0.00209534 -0.00212235 -0.00212235 -0.00214908 -0.00214908 -0.00217555 -0.00217555 -0.00220176 -0.00220176 -0.00222771 -0.00222771 -0.0022534 -0.0022534 -0.00227883 -0.00227883 -0.00230401 -0.00230401 -0.00232892 -0.00232892 -0.00235359 -0.00235359 -0.00237799 -0.00237799 -0.00240214 -0.00240214 -0.00242603 -0.00242603 -0.00244967 -0.00244967 -0.00247304 -0.00247304 -0.00249616 -0.00249616 -0.00251901 -0.00251901 -0.0025416 -0.0025416 -0.00256393 -0.00256393 -0.00258598 -0.00258598 -0.00260777 -0.00260777 -0.00262928 -0.00262928 -0.00265051 -0.00265051 -0.00267146 -0.00267146 -0.00269212 -0.00269212 -0.0027125 -0.0027125 -0.00273258 -0.00273258 -0.00275236 -0.00275236 -0.00277184 -0.00277184 -0.002791 -0.002791 -0.00280985 -0.00280985 -0.00282838 -0.00282838 -0.00284658 -0.002