# vtk DataFile Version 3.0
#This file was generated by the deal.II library on 2020/9/1 at 14:41:37
ASCII
DATASET UNSTRUCTURED_GRID

POINTS 2048 double
1.5 0 0
1.59619 0 0
1.59619 0 0
1.69238 0 0
1.69238 0 0
1.78857 0 0
1.78857 0 0
1.88477 0 0
1.88477 0 0
1.98096 0 0
1.98096 0 0
2.07715 0 0
2.07715 0 0
2.17334 0 0
2.17334 0 0
2.26953 0 0
2.26953 0 0
2.36572 0 0
2.36572 0 0
2.46191 0 0
2.46191 0 0
2.55811 0 0
2.55811 0 0
2.6543 0 0
2.6543 0 0
2.75049 0 0
2.75049 0 0
2.84668 0 0
2.84668 0 0
2.94287 0 0
2.94287 0 0
3.03906 0 0
3.03906 0 0
3.13525 0 0
3.13525 0 0
3.23145 0 0
3.23145 0 0
3.32764 0 0
3.32764 0 0
3.42383 0 0
3.42383 0 0
3.52002 0 0
3.52002 0 0
3.61621 0 0
3.61621 0 0
3.7124 0 0
3.7124 0 0
3.80859 0 0
3.80859 0 0
3.90479 0 0
3.90479 0 0
4.00098 0 0
4.00098 0 0
4.09717 0 0
4.09717 0 0
4.19336 0 0
4.19336 0 0
4.28955 0 0
4.28955 0 0
4.38574 0 0
4.38574 0 0
4.48193 0 0
4.48193 0 0
4.57812 0 0
4.57812 0 0
4.67432 0 0
4.67432 0 0
4.77051 0 0
4.77051 0 0
4.8667 0 0
4.8667 0 0
4.96289 0 0
4.96289 0 0
5.05908 0 0
5.05908 0 0
5.15527 0 0
5.15527 0 0
5.25146 0 0
5.25146 0 0
5.34766 0 0
5.34766 0 0
5.44385 0 0
5.44385 0 0
5.54004 0 0
5.54004 0 0
5.63623 0 0
5.63623 0 0
5.73242 0 0
5.73242 0 0
5.82861 0 0
5.82861 0 0
5.9248 0 0
5.9248 0 0
6.021 0 0
6.021 0 0
6.11719 0 0
6.11719 0 0
6.21338 0 0
6.21338 0 0
6.30957 0 0
6.30957 0 0
6.40576 0 0
6.40576 0 0
6.50195 0 0
6.50195 0 0
6.59814 0 0
6.59814 0 0
6.69434 0 0
6.69434 0 0
6.79053 0 0
6.79053 0 0
6.88672 0 0
6.88672 0 0
6.98291 0 0
6.98291 0 0
7.0791 0 0
7.0791 0 0
7.17529 0 0
7.17529 0 0
7.27148 0 0
7.27148 0 0
7.36768 0 0
7.36768 0 0
7.46387 0 0
7.46387 0 0
7.56006 0 0
7.56006 0 0
7.65625 0 0
7.65625 0 0
7.75244 0 0
7.75244 0 0
7.84863 0 0
7.84863 0 0
7.94482 0 0
7.94482 0 0
8.04102 0 0
8.04102 0 0
8.13721 0 0
8.13721 0 0
8.2334 0 0
8.2334 0 0
8.32959 0 0
8.32959 0 0
8.42578 0 0
8.42578 0 0
8.52197 0 0
8.52197 0 0
8.61816 0 0
8.61816 0 0
8.71436 0 0
8.71436 0 0
8.81055 0 0
8.81055 0 0
8.90674 0 0
8.90674 0 0
9.00293 0 0
9.00293 0 0
9.09912 0 0
9.09912 0 0
9.19531 0 0
9.19531 0 0
9.2915 0 0
9.2915 0 0
9.3877 0 0
9.3877 0 0
9.48389 0 0
9.48389 0 0
9.58008 0 0
9.58008 0 0
9.67627 0 0
9.67627 0 0
9.77246 0 0
9.77246 0 0
9.86865 0 0
9.86865 0 0
9.96484 0 0
9.96484 0 0
10.061 0 0
10.061 0 0
10.1572 0 0
10.1572 0 0
10.2534 0 0
10.2534 0 0
10.3496 0 0
10.3496 0 0
10.4458 0 0
10.4458 0 0
10.542 0 0
10.542 0 0
10.6382 0 0
10.6382 0 0
10.7344 0 0
10.7344 0 0
10.8306 0 0
10.8306 0 0
10.9268 0 0
10.9268 0 0
11.0229 0 0
11.0229 0 0
11.1191 0 0
11.1191 0 0
11.2153 0 0
11.2153 0 0
11.3115 0 0
11.3115 0 0
11.4077 0 0
11.4077 0 0
11.5039 0 0
11.5039 0 0
11.6001 0 0
11.6001 0 0
11.6963 0 0
11.6963 0 0
11.7925 0 0
11.7925 0 0
11.8887 0 0
11.8887 0 0
11.9849 0 0
11.9849 0 0
12.0811 0 0
12.0811 0 0
12.1772 0 0
12.1772 0 0
12.2734 0 0
12.2734 0 0
12.3696 0 0
12.3696 0 0
12.4658 0 0
12.4658 0 0
12.562 0 0
12.562 0 0
12.6582 0 0
12.6582 0 0
12.7544 0 0
12.7544 0 0
12.8506 0 0
12.8506 0 0
12.9468 0 0
12.9468 0 0
13.043 0 0
13.043 0 0
13.1392 0 0
13.1392 0 0
13.2354 0 0
13.2354 0 0
13.3315 0 0
13.3315 0 0
13.4277 0 0
13.4277 0 0
13.5239 0 0
13.5239 0 0
13.6201 0 0
13.6201 0 0
13.7163 0 0
13.7163 0 0
13.8125 0 0
13.8125 0 0
13.9087 0 0
13.9087 0 0
14.0049 0 0
14.0049 0 0
14.1011 0 0
14.1011 0 0
14.1973 0 0
14.1973 0 0
14.2935 0 0
14.2935 0 0
14.3896 0 0
14.3896 0 0
14.4858 0 0
14.4858 0 0
14.582 0 0
14.582 0 0
14.6782 0 0
14.6782 0 0
14.7744 0 0
14.7744 0 0
14.8706 0 0
14.8706 0 0
14.9668 0 0
14.9668 0 0
15.063 0 0
15.063 0 0
15.1592 0 0
15.1592 0 0
15.2554 0 0
15.2554 0 0
15.3516 0 0
15.3516 0 0
15.4478 0 0
15.4478 0 0
15.5439 0 0
15.5439 0 0
15.6401 0 0
15.6401 0 0
15.7363 0 0
15.7363 0 0
15.8325 0 0
15.8325 0 0
15.9287 0 0
15.9287 0 0
16.0249 0 0
16.0249 0 0
16.1211 0 0
16.1211 0 0
16.2173 0 0
16.2173 0 0
16.3135 0 0
16.3135 0 0
16.4097 0 0
16.4097 0 0
16.5059 0 0
16.5059 0 0
16.6021 0 0
16.6021 0 0
16.6982 0 0
16.6982 0 0
16.7944 0 0
16.7944 0 0
16.8906 0 0
16.8906 0 0
16.9868 0 0
16.9868 0 0
17.083 0 0
17.083 0 0
17.1792 0 0
17.1792 0 0
17.2754 0 0
17.2754 0 0
17.3716 0 0
17.3716 0 0
17.4678 0 0
17.4678 0 0
17.564 0 0
17.564 0 0
17.6602 0 0
17.6602 0 0
17.7563 0 0
17.7563 0 0
17.8525 0 0
17.8525 0 0
17.9487 0 0
17.9487 0 0
18.0449 0 0
18.0449 0 0
18.1411 0 0
18.1411 0 0
18.2373 0 0
18.2373 0 0
18.3335 0 0
18.3335 0 0
18.4297 0 0
18.4297 0 0
18.5259 0 0
18.5259 0 0
18.6221 0 0
18.6221 0 0
18.7183 0 0
18.7183 0 0
18.8145 0 0
18.8145 0 0
18.9106 0 0
18.9106 0 0
19.0068 0 0
19.0068 0 0
19.103 0 0
19.103 0 0
19.1992 0 0
19.1992 0 0
19.2954 0 0
19.2954 0 0
19.3916 0 0
19.3916 0 0
19.4878 0 0
19.4878 0 0
19.584 0 0
19.584 0 0
19.6802 0 0
19.6802 0 0
19.7764 0 0
19.7764 0 0
19.8726 0 0
19.8726 0 0
19.9688 0 0
19.9688 0 0
20.0649 0 0
20.0649 0 0
20.1611 0 0
20.1611 0 0
20.2573 0 0
20.2573 0 0
20.3535 0 0
20.3535 0 0
20.4497 0 0
20.4497 0 0
20.5459 0 0
20.5459 0 0
20.6421 0 0
20.6421 0 0
20.7383 0 0
20.7383 0 0
20.8345 0 0
20.8345 0 0
20.9307 0 0
20.9307 0 0
21.0269 0 0
21.0269 0 0
21.123 0 0
21.123 0 0
21.2192 0 0
21.2192 0 0
21.3154 0 0
21.3154 0 0
21.4116 0 0
21.4116 0 0
21.5078 0 0
21.5078 0 0
21.604 0 0
21.604 0 0
21.7002 0 0
21.7002 0 0
21.7964 0 0
21.7964 0 0
21.8926 0 0
21.8926 0 0
21.9888 0 0
21.9888 0 0
22.085 0 0
22.085 0 0
22.1812 0 0
22.1812 0 0
22.2773 0 0
22.2773 0 0
22.3735 0 0
22.3735 0 0
22.4697 0 0
22.4697 0 0
22.5659 0 0
22.5659 0 0
22.6621 0 0
22.6621 0 0
22.7583 0 0
22.7583 0 0
22.8545 0 0
22.8545 0 0
22.9507 0 0
22.9507 0 0
23.0469 0 0
23.0469 0 0
23.1431 0 0
23.1431 0 0
23.2393 0 0
23.2393 0 0
23.3354 0 0
23.3354 0 0
23.4316 0 0
23.4316 0 0
23.5278 0 0
23.5278 0 0
23.624 0 0
23.624 0 0
23.7202 0 0
23.7202 0 0
23.8164 0 0
23.8164 0 0
23.9126 0 0
23.9126 0 0
24.0088 0 0
24.0088 0 0
24.105 0 0
24.105 0 0
24.2012 0 0
24.2012 0 0
24.2974 0 0
24.2974 0 0
24.3936 0 0
24.3936 0 0
24.4897 0 0
24.4897 0 0
24.5859 0 0
24.5859 0 0
24.6821 0 0
24.6821 0 0
24.7783 0 0
24.7783 0 0
24.8745 0 0
24.8745 0 0
24.9707 0 0
24.9707 0 0
25.0669 0 0
25.0669 0 0
25.1631 0 0
25.1631 0 0
25.2593 0 0
25.2593 0 0
25.3555 0 0
25.3555 0 0
25.4517 0 0
25.4517 0 0
25.5479 0 0
25.5479 0 0
25.644 0 0
25.644 0 0
25.7402 0 0
25.7402 0 0
25.8364 0 0
25.8364 0 0
25.9326 0 0
25.9326 0 0
26.0288 0 0
26.0288 0 0
26.125 0 0
26.125 0 0
26.2212 0 0
26.2212 0 0
26.3174 0 0
26.3174 0 0
26.4136 0 0
26.4136 0 0
26.5098 0 0
26.5098 0 0
26.606 0 0
26.606 0 0
26.7021 0 0
26.7021 0 0
26.7983 0 0
26.7983 0 0
26.8945 0 0
26.8945 0 0
26.9907 0 0
26.9907 0 0
27.0869 0 0
27.0869 0 0
27.1831 0 0
27.1831 0 0
27.2793 0 0
27.2793 0 0
27.3755 0 0
27.3755 0 0
27.4717 0 0
27.4717 0 0
27.5679 0 0
27.5679 0 0
27.6641 0 0
27.6641 0 0
27.7603 0 0
27.7603 0 0
27.8564 0 0
27.8564 0 0
27.9526 0 0
27.9526 0 0
28.0488 0 0
28.0488 0 0
28.145 0 0
28.145 0 0
28.2412 0 0
28.2412 0 0
28.3374 0 0
28.3374 0 0
28.4336 0 0
28.4336 0 0
28.5298 0 0
28.5298 0 0
28.626 0 0
28.626 0 0
28.7222 0 0
28.7222 0 0
28.8184 0 0
28.8184 0 0
28.9146 0 0
28.9146 0 0
29.0107 0 0
29.0107 0 0
29.1069 0 0
29.1069 0 0
29.2031 0 0
29.2031 0 0
29.2993 0 0
29.2993 0 0
29.3955 0 0
29.3955 0 0
29.4917 0 0
29.4917 0 0
29.5879 0 0
29.5879 0 0
29.6841 0 0
29.6841 0 0
29.7803 0 0
29.7803 0 0
29.8765 0 0
29.8765 0 0
29.9727 0 0
29.9727 0 0
30.0688 0 0
30.0688 0 0
30.165 0 0
30.165 0 0
30.2612 0 0
30.2612 0 0
30.3574 0 0
30.3574 0 0
30.4536 0 0
30.4536 0 0
30.5498 0 0
30.5498 0 0
30.646 0 0
30.646 0 0
30.7422 0 0
30.7422 0 0
30.8384 0 0
30.8384 0 0
30.9346 0 0
30.9346 0 0
31.0308 0 0
31.0308 0 0
31.127 0 0
31.127 0 0
31.2231 0 0
31.2231 0 0
31.3193 0 0
31.3193 0 0
31.4155 0 0
31.4155 0 0
31.5117 0 0
31.5117 0 0
31.6079 0 0
31.6079 0 0
31.7041 0 0
31.7041 0 0
31.8003 0 0
31.8003 0 0
31.8965 0 0
31.8965 0 0
31.9927 0 0
31.9927 0 0
32.0889 0 0
32.0889 0 0
32.1851 0 0
32.1851 0 0
32.2812 0 0
32.2812 0 0
32.3774 0 0
32.3774 0 0
32.4736 0 0
32.4736 0 0
32.5698 0 0
32.5698 0 0
32.666 0 0
32.666 0 0
32.7622 0 0
32.7622 0 0
32.8584 0 0
32.8584 0 0
32.9546 0 0
32.9546 0 0
33.0508 0 0
33.0508 0 0
33.147 0 0
33.147 0 0
33.2432 0 0
33.2432 0 0
33.3394 0 0
33.3394 0 0
33.4355 0 0
33.4355 0 0
33.5317 0 0
33.5317 0 0
33.6279 0 0
33.6279 0 0
33.7241 0 0
33.7241 0 0
33.8203 0 0
33.8203 0 0
33.9165 0 0
33.9165 0 0
34.0127 0 0
34.0127 0 0
34.1089 0 0
34.1089 0 0
34.2051 0 0
34.2051 0 0
34.3013 0 0
34.3013 0 0
34.3975 0 0
34.3975 0 0
34.4937 0 0
34.4937 0 0
34.5898 0 0
34.5898 0 0
34.686 0 0
34.686 0 0
34.7822 0 0
34.7822 0 0
34.8784 0 0
34.8784 0 0
34.9746 0 0
34.9746 0 0
35.0708 0 0
35.0708 0 0
35.167 0 0
35.167 0 0
35.2632 0 0
35.2632 0 0
35.3594 0 0
35.3594 0 0
35.4556 0 0
35.4556 0 0
35.5518 0 0
35.5518 0 0
35.6479 0 0
35.6479 0 0
35.7441 0 0
35.7441 0 0
35.8403 0 0
35.8403 0 0
35.9365 0 0
35.9365 0 0
36.0327 0 0
36.0327 0 0
36.1289 0 0
36.1289 0 0
36.2251 0 0
36.2251 0 0
36.3213 0 0
36.3213 0 0
36.4175 0 0
36.4175 0 0
36.5137 0 0
36.5137 0 0
36.6099 0 0
36.6099 0 0
36.7061 0 0
36.7061 0 0
36.8022 0 0
36.8022 0 0
36.8984 0 0
36.8984 0 0
36.9946 0 0
36.9946 0 0
37.0908 0 0
37.0908 0 0
37.187 0 0
37.187 0 0
37.2832 0 0
37.2832 0 0
37.3794 0 0
37.3794 0 0
37.4756 0 0
37.4756 0 0
37.5718 0 0
37.5718 0 0
37.668 0 0
37.668 0 0
37.7642 0 0
37.7642 0 0
37.8604 0 0
37.8604 0 0
37.9565 0 0
37.9565 0 0
38.0527 0 0
38.0527 0 0
38.1489 0 0
38.1489 0 0
38.2451 0 0
38.2451 0 0
38.3413 0 0
38.3413 0 0
38.4375 0 0
38.4375 0 0
38.5337 0 0
38.5337 0 0
38.6299 0 0
38.6299 0 0
38.7261 0 0
38.7261 0 0
38.8223 0 0
38.8223 0 0
38.9185 0 0
38.9185 0 0
39.0146 0 0
39.0146 0 0
39.1108 0 0
39.1108 0 0
39.207 0 0
39.207 0 0
39.3032 0 0
39.3032 0 0
39.3994 0 0
39.3994 0 0
39.4956 0 0
39.4956 0 0
39.5918 0 0
39.5918 0 0
39.688 0 0
39.688 0 0
39.7842 0 0
39.7842 0 0
39.8804 0 0
39.8804 0 0
39.9766 0 0
39.9766 0 0
40.0728 0 0
40.0728 0 0
40.1689 0 0
40.1689 0 0
40.2651 0 0
40.2651 0 0
40.3613 0 0
40.3613 0 0
40.4575 0 0
40.4575 0 0
40.5537 0 0
40.5537 0 0
40.6499 0 0
40.6499 0 0
40.7461 0 0
40.7461 0 0
40.8423 0 0
40.8423 0 0
40.9385 0 0
40.9385 0 0
41.0347 0 0
41.0347 0 0
41.1309 0 0
41.1309 0 0
41.2271 0 0
41.2271 0 0
[...]
POINT_DATA 2048
SCALARS solution_0 double 1
LOOKUP_TABLE default
0.0232671 0.0233423 0.0233423 0.0233704 0.0233704 0.0233624 0.0233624 0.0233264 0.0233264 0.023268 0.023268 0.0231918 0.0231918 0.0231009 0.0231009 0.022998 0.022998 0.022885 0.022885 0.0227634 0.0227634 0.0226344 0.0226344 0.0224991 0.0224991 0.0223582 0.0223582 0.0222122 0.0222122 0.0220618 0.0220618 0.0219072 0.0219072 0.0217489 0.0217489 0.021587 0.021587 0.0214217 0.0214217 0.0212533 0.0212533 0.0210818 0.0210818 0.0209073 0.0209073 0.0207299 0.0207299 0.0205497 0.0205497 0.0203668 0.0203668 0.0201811 0.0201811 0.0199926 0.0199926 0.0198015 0.0198015 0.0196077 0.0196077 0.0194113 0.0194113 0.0192122 0.0192122 0.0190105 0.0190105 0.0188062 0.0188062 0.0185993 0.0185993 0.0183899 0.0183899 0.018178 0.018178 0.0179637 0.0179637 0.017747 0.017747 0.017528 0.017528 0.0173067 0.0173067 0.0170833 0.0170833 0.0168579 0.0168579 0.0166306 0.0166306 0.0164014 0.0164014 0.0161707 0.0161707 0.0159385 0.0159385 0.015705 0.015705 0.0154704 0.0154704 0.015235 0.015235 0.014999 0.014999 0.0147626 0.0147626 0.0145262 0.0145262 0.0142901 0.0142901 0.0140547 0.0140547 0.0138202 0.0138202 0.0135871 0.0135871 0.0133558 0.0133558 0.0131269 0.0131269 0.0129007 0.0129007 0.0126778 0.0126778 0.0124587 0.0124587 0.0122441 0.0122441 0.0120346 0.0120346 0.0118308 0.0118308 0.0116335 0.0116335 0.0114434 0.0114434 0.0112612 0.0112612 0.0110879 0.0110879 0.0109243 0.0109243 0.0107712 0.0107712 0.0106298 0.0106298 0.0105009 0.0105009 0.0103857 0.0103857 0.0102852 0.0102852 0.0102007 0.0102007 0.0101332 0.0101332 0.0100842 0.0100842 0.0100549 0.0100549 0.0100467 0.0100467 0.010061 0.010061 0.0100993 0.0100993 0.0101631 0.0101631 0.010254 0.010254 0.0103738 0.0103738 0.010524 0.010524 0.0107066 0.0107066 0.0109232 0.0109232 0.0111758 0.0111758 0.0114664 0.0114664 0.011797 0.011797 0.0121695 0.0121695 0.0125863 0.0125863 0.0130493 0.0130493 0.013561 0.013561 0.0141236 0.0141236 0.0147394 0.0147394 0.0154109 0.0154109 0.0161406 0.0161406 0.0169309 0.0169309 0.0177845 0.0177845 0.0187039 0.0187039 0.019692 0.019692 0.0207513 0.0207513 0.0218848 0.0218848 0.0230951 0.0230951 0.0243852 0.0243852 0.025758 0.025758 0.0272164 0.0272164 0.0287633 0.0287633 0.0304018 0.0304018 0.032135 0.032135 0.0339658 0.0339658 0.0358974 0.0358974 0.0379328 0.0379328 0.0400751 0.0400751 0.0423275 0.0423275 0.044693 0.044693 0.0471748 0.0471748 0.049776 0.049776 0.0524997 0.0524997 0.055349 0.055349 0.0583268 0.0583268 0.0614364 0.0614364 0.0646805 0.0646805 0.0680623 0.0680623 0.0715846 0.0715846 0.0752502 0.0752502 0.079062 0.079062 0.0830227 0.0830227 0.087135 0.087135 0.0914014 0.0914014 0.0958244 0.0958244 0.100406 0.100406 0.10515 0.10515 0.110057 0.110057 0.115129 0.115129 0.120369 0.120369 0.125778 0.125778 0.131359 0.131359 0.137111 0.137111 0.143038 0.143038 0.14914 0.14914 0.155418 0.155418 0.161872 0.161872 0.168504 0.168504 0.175315 0.175315 0.182303 0.182303 0.18947 0.18947 0.196815 0.196815 0.204337 0.204337 0.212037 0.212037 0.219912 0.219912 0.227963 0.227963 0.236187 0.236187 0.244583 0.244583 0.253148 0.253148 0.261882 0.261882 0.27078 0.27078 0.279841 0.279841 0.289061 0.289061 0.298436 0.298436 0.307964 0.307964 0.317639 0.317639 0.327459 0.327459 0.337417 0.337417 0.347509 0.347509 0.35773 0.35773 0.368074 0.368074 0.378535 0.378535 0.389107 0.389107 0.399782 0.399782 0.410555 0.410555 0.421418 0.421418 0.432363 0.432363 0.443382 0.443382 0.454467 0.454467 0.465609 0.465609 0.4768 0.4768 0.488029 0.488029 0.499288 0.499288 0.510567 0.510567 0.521855 0.521855 0.533142 0.533142 0.544417 0.544417 0.55567 0.55567 0.566888 0.566888 0.57806 0.57806 0.589175 0.589175 0.60022 0.60022 0.611183 0.611183 0.622051 0.622051 0.632812 0.632812 0.643453 0.643453 0.65396 0.65396 0.664321 0.664321 0.674521 0.674521 0.684548 0.684548 0.694387 0.694387 0.704025 0.704025 0.713449 0.713449 0.722643 0.722643 0.731594 0.731594 0.740288 0.740288 0.74871 0.74871 0.756848 0.756848 0.764687 0.764687 0.772212 0.772212 0.779411 0.779411 0.786269 0.786269 0.792772 0.792772 0.798907 0.798907 0.804661 0.804661 0.81002 0.81002 0.814972 0.814972 0.819503 0.819503 0.823601 0.823601 0.827253 0.827253 0.830448 0.830448 0.833174 0.833174 0.83542 0.83542 0.837174 0.837174 0.838426 0.838426 0.839165 0.839165 0.839382 0.839382 0.839068 0.839068 0.838212 0.838212 0.836808 0.836808 0.834846 0.834846 0.832319 0.832319 0.82922 0.82922 0.825543 0.825543 0.821283 0.821283 0.816432 0.816432 0.810988 0.810988 0.804945 0.804945 0.798301 0.798301 0.791052 0.791052 0.783196 0.783196 0.774732 0.774732 0.765658 0.765658 0.755975 0.755975 0.745683 0.745683 0.734782 0.734782 0.723276 0.723276 0.711166 0.711166 0.698455 0.698455 0.685148 0.685148 0.671249 0.671249 0.656764 0.656764 0.641698 0.641698 0.626058 0.626058 0.609852 0.609852 0.593088 0.593088 0.575775 0.575775 0.557921 0.557921 0.539538 0.539538 0.520637 0.520637 0.501228 0.501228 0.481324 0.481324 0.460937 0.460937 0.440082 0.440082 0.418772 0.418772 0.397021 0.397021 0.374846 0.374846 0.352261 0.352261 0.329283 0.329283 0.30593 0.30593 0.282217 0.282217 0.258163 0.258163 0.233787 0.233787 0.209106 0.209106 0.18414 0.18414 0.158909 0.158909 0.133433 0.133433 0.10773 0.10773 0.0818234 0.0818234 0.0557322 0.0557322 0.0294779 0.0294779 0.00308186 0.00308186 -0.0234345 -0.0234345 -0.0500495 -0.0500495 -0.0767414 -0.0767414 -0.103488 -0.103488 -0.130268 -0.130268 -0.157058 -0.157058 -0.183838 -0.183838 -0.210584 -0.210584 -0.237274 -0.237274 -0.263887 -0.263887 -0.290401 -0.290401 -0.316794 -0.316794 -0.343044 -0.343044 -0.369129 -0.369129 -0.395029 -0.395029 -0.420723 -0.420723 -0.446189 -0.446189 -0.471407 -0.471407 -0.496357 -0.496357 -0.521019 -0.521019 -0.545374 -0.545374 -0.569402 -0.569402 -0.593085 -0.593085 -0.616404 -0.616404 -0.639341 -0.639341 -0.66188 -0.66188 -0.684004 -0.684004 -0.705696 -0.705696 -0.726939 -0.726939 -0.74772 -0.74772 -0.768024 -0.768024 -0.787836 -0.787836 -0.807142 -0.807142 -0.825931 -0.825931 -0.844189 -0.844189 -0.861905 -0.861905 -0.879069 -0.879069 -0.89567 -0.89567 -0.911697 -0.911697 -0.927144 -0.927144 -0.942 -0.942 -0.956259 -0.956259 -0.969913 -0.969913 -0.982957 -0.982957 -0.995385 -0.995385 -1.00719 -1.00719 -1.01837 -1.01837 -1.02893 -1.02893 -1.03885 -1.03885 -1.04814 -1.04814 -1.05679 -1.05679 -1.06481 -1.06481 -1.0722 -1.0722 -1.07895 -1.07895 -1.08507 -1.08507 -1.09055 -1.09055 -1.09541 -1.09541 -1.09965 -1.09965 -1.10326 -1.10326 -1.10625 -1.10625 -1.10864 -1.10864 -1.11041 -1.11041 -1.11159 -1.11159 -1.11218 -1.11218 -1.11217 -1.11217 -1.1116 -1.1116 -1.11045 -1.11045 -1.10874 -1.10874 -1.10647 -1.10647 -1.10367 -1.10367 -1.10033 -1.10033 -1.09647 -1.09647 -1.09211 -1.09211 -1.08724 -1.08724 -1.08188 -1.08188 -1.07605 -1.07605 -1.06975 -1.06975 -1.063 -1.063 -1.05582 -1.05582 -1.04821 -1.04821 -1.04018 -1.04018 -1.03176 -1.03176 -1.02295 -1.02295 -1.01377 -1.01377 -1.00423 -1.00423 -0.994345 -0.994345 -0.984132 -0.984132 -0.973602 -0.973602 -0.962772 -0.962772 -0.951654 -0.951654 -0.940262 -0.940262 -0.928612 -0.928612 -0.916717 -0.916717 -0.904592 -0.904592 -0.892251 -0.892251 -0.879707 -0.879707 -0.866975 -0.866975 -0.854069 -0.854069 -0.841002 -0.841002 -0.827788 -0.827788 -0.814441 -0.814441 -0.800973 -0.800973 -0.787399 -0.787399 -0.773731 -0.773731 -0.759981 -0.759981 -0.746163 -0.746163 -0.732289 -0.732289 -0.71837 -0.71837 -0.704419 -0.704419 -0.690447 -0.690447 -0.676466 -0.676466 -0.662487 -0.662487 -0.64852 -0.64852 -0.634576 -0.634576 -0.620665 -0.620665 -0.606797 -0.606797 -0.592983 -0.592983 -0.57923 -0.57923 -0.565549 -0.565549 -0.551947 -0.551947 -0.538434 -0.538434 -0.525017 -0.525017 -0.511705 -0.511705 -0.498504 -0.498504 -0.485422 -0.485422 -0.472465 -0.472465 -0.45964 -0.45964 -0.446954 -0.446954 -0.434412 -0.434412 -0.422019 -0.422019 -0.409782 -0.409782 -0.397704 -0.397704 -0.385791 -0.385791 -0.374046 -0.374046 -0.362474 -0.362474 -0.351078 -0.351078 -0.339863 -0.339863 -0.32883 -0.32883 -0.317983 -0.317983 -0.307324 -0.307324 -0.296856 -0.296856 -0.286581 -0.286581 -0.2765 -0.2765 -0.266615 -0.266615 -0.256928 -0.256928 -0.247438 -0.247438 -0.238148 -0.238148 -0.229057 -0.229057 -0.220166 -0.220166 -0.211475 -0.211475 -0.202984 -0.202984 -0.194692 -0.194692 -0.1866 -0.1866 -0.178706 -0.178706 -0.17101 -0.17101 -0.16351 -0.16351 -0.156205 -0.156205 -0.149095 -0.149095 -0.142177 -0.142177 -0.13545 -0.13545 -0.128912 -0.128912 -0.122561 -0.122561 -0.116395 -0.116395 -0.110412 -0.110412 -0.10461 -0.10461 -0.0989861 -0.0989861 -0.0935382 -0.0935382 -0.0882636 -0.0882636 -0.0831598 -0.0831598 -0.078224 -0.078224 -0.0734534 -0.0734534 -0.0688453 -0.0688453 -0.0643968 -0.0643968 -0.0601048 -0.0601048 -0.0559665 -0.0559665 -0.0519788 -0.0519788 -0.0481387 -0.0481387 -0.044443 -0.044443 -0.0408886 -0.0408886 -0.0374725 -0.0374725 -0.0341915 -0.0341915 -0.0310424 -0.0310424 -0.028022 -0.028022 -0.0251272 -0.0251272 -0.0223549 -0.0223549 -0.0197019 -0.0197019 -0.017165 -0.017165 -0.0147411 -0.0147411 -0.0124272 -0.0124272 -0.01022 -0.01022 -0.00811658 -0.00811658 -0.00611385 -0.00611385 -0.00420881 -0.00420881 -0.00239846 -0.00239846 -0.00067987 -0.00067987 0.000949887 0.000949887 0.00249368 0.00249368 0.00395435 0.00395435 0.00533469 0.00533469 0.00663744 0.00663744 0.00786532 0.00786532 0.00902098 0.00902098 0.010107 0.010107 0.011126 0.011126 0.0120805 0.0120805 0.0129729 0.0129729 0.0138057 0.0138057 0.0145811 0.0145811 0.0153015 0.0153015 0.0159692 0.0159692 0.0165864 0.0165864 0.0171552 0.0171552 0.0176776 0.0176776 0.0181558 0.0181558 0.0185917 0.0185917 0.0189873 0.0189873 0.0193444 0.0193444 0.0196648 0.0196648 0.0199503 0.0199503 0.0202027 0.0202027 0.0204236 0.0204236 0.0206146 0.0206146 0.0207773 0.0207773 0.0209131 0.0209131 0.0210236 0.0210236 0.0211102 0.0211102 0.0211742 0.0211742 0.0212169 0.0212169 0.0212396 0.0212396 0.0212435 0.0212435 0.0212299 0.0212299 0.0211998 0.0211998 0.0211542 0.0211542 0.0210944 0.0210944 0.0210212 0.0210212 0.0209356 0.0209356 0.0208386 0.0208386 0.020731 0.020731 0.0206137 0.0206137 0.0204874 0.0204874 0.020353 0.020353 0.0202111 0.0202111 0.0200625 0.0200625 0.0199079 0.0199079 0.0197478 0.0197478 0.0195829 0.0195829 0.0194137 0.0194137 0.0192408 0.0192408 0.0190647 0.0190647 0.0188859 0.0188859 0.0187048 0.0187048 0.0185218 0.0185218 0.0183375 0.0183375 0.018152 0.018152 0.0179659 0.0179659 0.0177794 0.0177794 0.0175929 0.0175929 0.0174066 0.0174066 0.0172208 0.0172208 0.0170357 0.0170357 0.0168517 0.0168517 0.0166689 0.0166689 0.0164874 0.0164874 0.0163076 0.0163076 0.0161295 0.0161295 0.0159533 0.0159533 0.0157791 0.0157791 0.0156071 0.0156071 0.0154373 0.0154373 0.0152699 0.0152699 0.0151049 0.0151049 0.0149424 0.0149424 0.0147824 0.0147824 0.0146251 0.0146251 0.0144704 0.0144704 0.0143184 0.0143184 0.0141691 0.0141691 0.0140225 0.0140225 0.0138786 0.0138786 0.0137373 0.0137373 0.0135988 0.0135988 0.0134629 0.0134629 0.0133296 0.0133296 0.013199 0.013199 0.0130709 0.0130709 0.0129453 0.0129453 0.0128221 0.0128221 0.0127014 0.0127014 0.012583 0.012583 0.0124669 0.0124669 0.012353 0.012353 0.0122413 0.0122413 0.0121316 0.0121316 0.0120238 0.0120238 0.011918 0.011918 0.011814 0.011814 0.0117117 0.0117117 0.0116111 0.0116111 0.0115119 0.0115119 0.0114143 0.0114143 0.0113179 0.0113179 0.0112228 0.0112228 0.0111289 0.0111289 0.011036 0.011036 0.0109441 0.0109441 0.010853 0.010853 0.0107626 0.0107626 0.0106729 0.0106729 0.0105837 0.0105837 0.0104949 0.0104949 0.0104065 0.0104065 0.0103182 0.0103182 0.0102301 0.0102301 0.010142 0.010142 0.0100538 0.0100538 0.00996533 0.00996533 0.0098766 0.0098766 0.00978747 0.00978747 0.00969783 0.00969783 0.00960758 0.00960758 0.00951662 0.00951662 0.00942486 0.00942486 0.0093322 0.0093322 0.00923854 0.00923854 0.0091438 0.0091438 0.00904787 0.00904787 0.00895067 0.00895067 0.00885212 0.00885212 0.00875212 0.00875212 0.0086506 0.0086506 0.00854746 0.00854746 0.00844264 0.00844264 0.00833605 0.00833605 0.00822762 0.00822762 0.00811728 0.00811728 0.00800496 0.00800496 0.0078906 0.0078906 0.00777412 0.00777412 0.00765546 0.00765546 0.00753458 0.00753458 0.00741142 0.00741142 0.00728591 0.00728591 0.00715802 0.00715802 0.0070277 0.0070277 0.00689491 0.00689491 0.0067596 0.0067596 0.00662175 0.00662175 0.00648131 0.00648131 0.00633827 0.00633827 0.00619259 0.00619259 0.00604426 0.00604426 0.00589326 0.00589326 0.00573957 0.00573957 0.00558318 0.00558318 0.00542409 0.00542409 0.00526229 0.00526229 0.00509779 0.00509779 0.00493058 0.00493058 0.00476069 0.00476069 0.00458811 0.00458811 0.00441287 0.00441287 0.00423499 0.00423499 0.00405449 0.00405449 0.0038714 0.0038714 0.00368574 0.00368574 0.00349756 0.00349756 0.0033069 0.0033069 0.00311379 0.00311379 0.00291829 0.00291829 0.00272044 0.00272044 0.0025203 0.0025203 0.00231793 0.00231793 0.00211338 0.00211338 0.00190673 0.00190673 0.00169803 0.00169803 0.00148737 0.00148737 0.00127481 0.00127481 0.00106044 0.00106044 0.000844328 0.000844328 0.000626569 0.000626569 0.000407246 0.000407246 0.000186451 0.000186451 -3.57255e-05 -3.57255e-05 -0.000259186 -0.000259186 -0.000483833 -0.000483833 -0.000709566 -0.000709566 -0.000936281 -0.000936281 -0.00116387 -0.00116387 -0.00139223 -0.00139223 -0.00162126 -0.00162126 -0.00185083 -0.00185083 -0.00208083 -0.00208083 -0.00231116 -0.00231116 -0.00254168 -0.00254168 -0.0027723 -0.0027723 -0.00300288 -0.00300288 -0.00323331 -0.00323331 -0.00346346 -0.00346346 -0.00369322 -0.00369322 -0.00392246 -0.00392246 -0.00415105 -0.00415105 -0.00437888 -0.00437888 -0.00460582 -0.00460582 -0.00483175 -0.00483175 -0.00505654 -0.00505654 -0.00528006 -0.00528006 -0.00550221 -0.00550221 -0.00572284 -0.00572284 -0.00594185 -0.00594185 -0.0061591 -0.0061591 -0.00637449 -0.00637449 -0.00658788 -0.00658788 -0.00679916 -0.00679916 -0.00700822 -0.00700822 -0.00721494 -0.00721494 -0.0074192 -0.0074192 -0.00762089 -0.00762089 -0.0078199 -0.0078199 -0.00801613 -0.00801613 -0.00820947 -0.00820947 -0.00839981 -0.00839981 -0.00858705 -0.00858705 -0.00877109 -0.00877109 -0.00895184 -0.00895184 -0.0091292 -0.0091292 -0.00930308 -0.00930308 -0.00947339 -0.00947339 -0.00964004 -0.00964004 -0.00980296 -0.00980296 -0.00996206 -0.00996206 -0.0101173 -0.0101173 -0.0102685 -0.0102685 -0.0104157 -0.0104157 -0.0105588 -0.0105588 -0.0106977 -0.0106977 -0.0108324 -0.0108324 -0.0109628 -0.0109628 -0.0110889 -0.0110889 -0.0112106 -0.0112106 -0.0113278 -0.0113278 -0.0114406 -0.0114406 -0.0115488 -0.0115488 -0.0116525 -0.0116525 -0.0117516 -0.0117516 -0.0118461 -0.0118461 -0.0119359 -0.0119359 -0.0120211 -0.0120211 -0.0121016 -0.0121016 -0.0121774 -0.0121774 -0.0122485 -0.0122485 -0.0123148 -0.0123148 -0.0123765 -0.0123765 -0.0124334 -0.0124334 -0.0124856 -0.0124856 -0.0125331 -0.0125331 -0.0125759 -0.0125759 -0.012614 -0.012614 -0.0126474 -0.0126474 -0.0126761 -0.0126761 -0.0127003 -0.0127003 -0.0127198 -0.0127198 -0.0127347 -0.0127347 -0.0127451 -0.0127451 -0.0127509 -0.0127509 -0.0127523 -0.0127523 -0.0127492 -0.0127492 -0.0127418 -0.0127418 -0.01273 -0.01273 -0.0127138 -0.0127138 -0.0126935 -0.0126935 -0.0126689 -0.0126689 -0.0126402 -0.0126402 -0.0126074 -0.0126074 -0.0125706 -0.0125706 -0.0125298 -0.0125298 -0.0124851 -0.0124851 -0.0124366 -0.0124366 -0.0123844 -0.0123844 -0.0123284 -0.0123284 -0.0122689 -0.0122689 -0.0122058 -0.0122058 -0.0121393 -0.0121393 -0.0120694 -0.0120694 -0.0119962 -0.0119962 -0.0119198 -0.0119198 -0.0118404 -0.0118404 -0.0117578 -0.0117578 -0.0116724 -0.0116724 -0.0115841 -0.0115841 -0.0114931 -0.0114931 -0.0113994 -0.0113994 -0.0113031 -0.0113031 -0.0112044 -0.0112044 -0.0111033 -0.0111033 -0.011 -0.011 -0.0108945 -0.0108945 -0.0107869 -0.0107869 -0.0106774 -0.0106774 -0.0105661 -0.0105661 -0.010453 -0.010453 -0.0103382 -0.0103382 -0.010222 -0.010222 -0.0101043 -0.0101043 -0.00998526 -0.00998526 -0.00986504 -0.00986504 -0.00974372 -0.00974372 -0.00962141 -0.00962141 -0.00949821 -0.00949821 -0.00937423 -0.00937423 -0.00924959 -0.00924959 -0.00912439 -0.00912439 -0.00899874 -0.00899874 -0.00887274 -0.00887274 -0.00874649 -0.00874649 -0.00862011 -0.00862011 -0.00849371 -0.00849371 -0.00836737 -0.00836737 -0.00824121 -0.00824121 -0.00811532 -0.00811532 -0.00798981 -0.00798981 -0.00786477 -0.00786477 -0.0077403 -0.0077403 -0.00761649 -0.00761649 -0.00749344 -0.00749344 -0.00737124 -0.00737124 -0.00724997 -0.00724997 -0.00712972 -0.00712972 -0.00701058 -0.00701058 -0.00689262 -0.00689262 -0.00677593 -0.00677593 -0.00666058 -0.00666058 -0.00654665 -0.00654665 -0.0064342 -0.0064342 -0.00632331 -0.00632331 -0.00621404 -0.00621404 -0.00610644 -0.00610644 -0.00600059 -0.00600059 -0.00589653 -0.00589653 -0.00579431 -0.00579431 -0.00569399 -0.00569399 -0.00559561 -0.00559561 -0.00549921 -0.00549921 -0.00540483 -0.00540483 -0.0053125 -0.0053125 -0.00522226 -0.00522226 -0.00513413 -0.00513413 -0.00504814 -0.00504814 -0.00496431 -0.00496431 -0.00488265 -0.00488265 -0.00480318 -0.00480318 -0.00472591 -0.00472591 -0.00465085 -0.00465085 -0.00457799 -0.00457799 -0.00450735 -0.00450735 -0.00443891 -0.00443891 -0.00437267 -0.00437267 -0.00430863 -0.00430863 -0.00424676 -0.00424676 -0.00418705 -0.00418705 -0.00412948 -0.00412948 -0.00407404 -0.00407404 -0.00402069 -0.00402069 -0.00396941 -0.00396941 -0.00392018 -0.00392018 -0.00387295 -0.00387295 -0.0038277 -0.0038277 -0.00378439 -0.00378439 -0.00374298 -0.00374298 -0.00370343 -0.00370343 -0.0036657 -0.0036657 -0.00362974 -0.00362974 -0.00359552 -0.00359552 -0.00356297 -0.00356297 -0.00353206 -0.00353206 -0.00350273 -0.00350273 -0.00347494 -0.00347494 -0.00344863 -0.00344863 -0.00342375 -0.00342375 -0.00340025 -0.00340025 -0.00337807 -0.00337807 -0.00335716 -0.00335716 -0.00333747 -0.00333747 -0.00331895 -0.00331895 -0.00330153 -0.00330153 -0.00328517 -0.00328517 -0.0032698 -0.0032698 -0.00325539 -0.00325539 -0.00324186 -0.00324186 -0.00322918 -0.00322918 -0.00321729 -0.00321729 -0.00320613 -0.00320613 -0.00319565 -0.00319565 -0.00318581 -0.00318581 -0.00317655 -0.00317655 -0.00316783 -0.00316783 -0.0031596 -0.0031596 -0.00315182 -0.00315182 -0.00314443 -0.00314443 -0.00313739 -0.00313739 -0.00313066 -0.00313066 -0.0031242 -0.0031242 -0.00311797 -0.00311797 -0.00311193 -0.00311193 -0.00310604 -0.00310604 -0.00310027 -0.00310027 -0.00309458 -0.00309458 -0.00308893 -0.00308893 -0.00308329 -0.00308329 -0.00307764 -0.00307764 -0.00307195 -0.00307195 -0.00306617 -0.00306617 -0.0030603 -0.0030603 -0.0030543 -0.0030543 -0.00304815 -0.00304815 -0.00304183 -0.00304183 -0.00303531 -0.00303531 -0.00302857 -0.00302857 -0.0030216 -0.0030216 -0.00301438 -0.00301438 -0.00300689 -0.00300689 -0.00299912 -0.00299912 -0.00299104 -0.00299104 -0.00298266 -0.00298266 -0.00297395 -0.00297395 -0.00296491 -0.00296491 -0.00295552 -0.00295552 -0.00294577 -0.00294577 -0.00293567 -0.00293567 -0.00292519 -0.00292519 -0.00291434 -0.00291434 -0.0029031 -0.0029031 -0.00289147 -0.00289147 -0.00287946 -0.00287946 -0.00286704 -0.00286704 -0.00285423 -0.00285423 -0.00284101 -0.00284101 -0.00282739 -0.00282739 -0.00281336 -0.00281336 -0.00279892 -0.00279892 -0.00278407 -0.00278407 -0.00276882 -0.00276882 -0.00275315 -0.00275315 -0.00273708 -0.00273708 -0.0027206 -0.0027206 -0.00270371 -0.00270371 -0.00268641 -0.00268641 -0.00266871 -0.00266871 -0.0026506 -0.0026506 -0.00263209 -0.00263209 -0.00261318 -0.00261318 -0.00259388 -0.00259388 -0.00257417 -0.00257417 -0.00255407 -0.00255407 -0.00253358 -0.00253358 -0.0025127 -0.0025127 -0.00249142 -0.00249142 -0.00246976 -0.00246976 -0.00244772 -0.00244772 -0.00242529 -0.00242529 -0.00240248 -0.00240248 -0.00237929 -0.00237929 -0.00235573 -0.00235573 -0.00233179 -0.00233179 -0.00230747 -0.00230747 -0.00228278 -0.00228278 -0.00225772 -0.00225772 -0.00223229 -0.00223229 -0.0022065 -0.0022065 -0.00218033 -0.00218033 -0.0021538 -0.0021538 -0.0021269 -0.0021269 -0.00209964 -0.00209964 -0.00207202 -0.00207202 -0.00204403 -0.00204403 -0.00201567 -0.00201567 -0.00198696 -0.00198696 -0.00195787 -0.00195787 -0.00192843 -0.00192843 -0.00189862 -0.00189862 -0.00186845 -0.00186845 -0.00183791 -0.00183791 -0.00180701 -0.00180701 -0.00177574 -0.001775