# vtk DataFile Version 3.0
#This file was generated by the deal.II library on 2020/9/1 at 14:42:04
ASCII
DATASET UNSTRUCTURED_GRID

POINTS 2048 double
1.5 0 0
1.59619 0 0
1.59619 0 0
1.69238 0 0
1.69238 0 0
1.78857 0 0
1.78857 0 0
1.88477 0 0
1.88477 0 0
1.98096 0 0
1.98096 0 0
2.07715 0 0
2.07715 0 0
2.17334 0 0
2.17334 0 0
2.26953 0 0
2.26953 0 0
2.36572 0 0
2.36572 0 0
2.46191 0 0
2.46191 0 0
2.55811 0 0
2.55811 0 0
2.6543 0 0
2.6543 0 0
2.75049 0 0
2.75049 0 0
2.84668 0 0
2.84668 0 0
2.94287 0 0
2.94287 0 0
3.03906 0 0
3.03906 0 0
3.13525 0 0
3.13525 0 0
3.23145 0 0
3.23145 0 0
3.32764 0 0
3.32764 0 0
3.42383 0 0
3.42383 0 0
3.52002 0 0
3.52002 0 0
3.61621 0 0
3.61621 0 0
3.7124 0 0
3.7124 0 0
3.80859 0 0
3.80859 0 0
3.90479 0 0
3.90479 0 0
4.00098 0 0
4.00098 0 0
4.09717 0 0
4.09717 0 0
4.19336 0 0
4.19336 0 0
4.28955 0 0
4.28955 0 0
4.38574 0 0
4.38574 0 0
4.48193 0 0
4.48193 0 0
4.57812 0 0
4.57812 0 0
4.67432 0 0
4.67432 0 0
4.77051 0 0
4.77051 0 0
4.8667 0 0
4.8667 0 0
4.96289 0 0
4.96289 0 0
5.05908 0 0
5.05908 0 0
5.15527 0 0
5.15527 0 0
5.25146 0 0
5.25146 0 0
5.34766 0 0
5.34766 0 0
5.44385 0 0
5.44385 0 0
5.54004 0 0
5.54004 0 0
5.63623 0 0
5.63623 0 0
5.73242 0 0
5.73242 0 0
5.82861 0 0
5.82861 0 0
5.9248 0 0
5.9248 0 0
6.021 0 0
6.021 0 0
6.11719 0 0
6.11719 0 0
6.21338 0 0
6.21338 0 0
6.30957 0 0
6.30957 0 0
6.40576 0 0
6.40576 0 0
6.50195 0 0
6.50195 0 0
6.59814 0 0
6.59814 0 0
6.69434 0 0
6.69434 0 0
6.79053 0 0
6.79053 0 0
6.88672 0 0
6.88672 0 0
6.98291 0 0
6.98291 0 0
7.0791 0 0
7.0791 0 0
7.17529 0 0
7.17529 0 0
7.27148 0 0
7.27148 0 0
7.36768 0 0
7.36768 0 0
7.46387 0 0
7.46387 0 0
7.56006 0 0
7.56006 0 0
7.65625 0 0
7.65625 0 0
7.75244 0 0
7.75244 0 0
7.84863 0 0
7.84863 0 0
7.94482 0 0
7.94482 0 0
8.04102 0 0
8.04102 0 0
8.13721 0 0
8.13721 0 0
8.2334 0 0
8.2334 0 0
8.32959 0 0
8.32959 0 0
8.42578 0 0
8.42578 0 0
8.52197 0 0
8.52197 0 0
8.61816 0 0
8.61816 0 0
8.71436 0 0
8.71436 0 0
8.81055 0 0
8.81055 0 0
8.90674 0 0
8.90674 0 0
9.00293 0 0
9.00293 0 0
9.09912 0 0
9.09912 0 0
9.19531 0 0
9.19531 0 0
9.2915 0 0
9.2915 0 0
9.3877 0 0
9.3877 0 0
9.48389 0 0
9.48389 0 0
9.58008 0 0
9.58008 0 0
9.67627 0 0
9.67627 0 0
9.77246 0 0
9.77246 0 0
9.86865 0 0
9.86865 0 0
9.96484 0 0
9.96484 0 0
10.061 0 0
10.061 0 0
10.1572 0 0
10.1572 0 0
10.2534 0 0
10.2534 0 0
10.3496 0 0
10.3496 0 0
10.4458 0 0
10.4458 0 0
10.542 0 0
10.542 0 0
10.6382 0 0
10.6382 0 0
10.7344 0 0
10.7344 0 0
10.8306 0 0
10.8306 0 0
10.9268 0 0
10.9268 0 0
11.0229 0 0
11.0229 0 0
11.1191 0 0
11.1191 0 0
11.2153 0 0
11.2153 0 0
11.3115 0 0
11.3115 0 0
11.4077 0 0
11.4077 0 0
11.5039 0 0
11.5039 0 0
11.6001 0 0
11.6001 0 0
11.6963 0 0
11.6963 0 0
11.7925 0 0
11.7925 0 0
11.8887 0 0
11.8887 0 0
11.9849 0 0
11.9849 0 0
12.0811 0 0
12.0811 0 0
12.1772 0 0
12.1772 0 0
12.2734 0 0
12.2734 0 0
12.3696 0 0
12.3696 0 0
12.4658 0 0
12.4658 0 0
12.562 0 0
12.562 0 0
12.6582 0 0
12.6582 0 0
12.7544 0 0
12.7544 0 0
12.8506 0 0
12.8506 0 0
12.9468 0 0
12.9468 0 0
13.043 0 0
13.043 0 0
13.1392 0 0
13.1392 0 0
13.2354 0 0
13.2354 0 0
13.3315 0 0
13.3315 0 0
13.4277 0 0
13.4277 0 0
13.5239 0 0
13.5239 0 0
13.6201 0 0
13.6201 0 0
13.7163 0 0
13.7163 0 0
13.8125 0 0
13.8125 0 0
13.9087 0 0
13.9087 0 0
14.0049 0 0
14.0049 0 0
14.1011 0 0
14.1011 0 0
14.1973 0 0
14.1973 0 0
14.2935 0 0
14.2935 0 0
14.3896 0 0
14.3896 0 0
14.4858 0 0
14.4858 0 0
14.582 0 0
14.582 0 0
14.6782 0 0
14.6782 0 0
14.7744 0 0
14.7744 0 0
14.8706 0 0
14.8706 0 0
14.9668 0 0
14.9668 0 0
15.063 0 0
15.063 0 0
15.1592 0 0
15.1592 0 0
15.2554 0 0
15.2554 0 0
15.3516 0 0
15.3516 0 0
15.4478 0 0
15.4478 0 0
15.5439 0 0
15.5439 0 0
15.6401 0 0
15.6401 0 0
15.7363 0 0
15.7363 0 0
15.8325 0 0
15.8325 0 0
15.9287 0 0
15.9287 0 0
16.0249 0 0
16.0249 0 0
16.1211 0 0
16.1211 0 0
16.2173 0 0
16.2173 0 0
16.3135 0 0
16.3135 0 0
16.4097 0 0
16.4097 0 0
16.5059 0 0
16.5059 0 0
16.6021 0 0
16.6021 0 0
16.6982 0 0
16.6982 0 0
16.7944 0 0
16.7944 0 0
16.8906 0 0
16.8906 0 0
16.9868 0 0
16.9868 0 0
17.083 0 0
17.083 0 0
17.1792 0 0
17.1792 0 0
17.2754 0 0
17.2754 0 0
17.3716 0 0
17.3716 0 0
17.4678 0 0
17.4678 0 0
17.564 0 0
17.564 0 0
17.6602 0 0
17.6602 0 0
17.7563 0 0
17.7563 0 0
17.8525 0 0
17.8525 0 0
17.9487 0 0
17.9487 0 0
18.0449 0 0
18.0449 0 0
18.1411 0 0
18.1411 0 0
18.2373 0 0
18.2373 0 0
18.3335 0 0
18.3335 0 0
18.4297 0 0
18.4297 0 0
18.5259 0 0
18.5259 0 0
18.6221 0 0
18.6221 0 0
18.7183 0 0
18.7183 0 0
18.8145 0 0
18.8145 0 0
18.9106 0 0
18.9106 0 0
19.0068 0 0
19.0068 0 0
19.103 0 0
19.103 0 0
19.1992 0 0
19.1992 0 0
19.2954 0 0
19.2954 0 0
19.3916 0 0
19.3916 0 0
19.4878 0 0
19.4878 0 0
19.584 0 0
19.584 0 0
19.6802 0 0
19.6802 0 0
19.7764 0 0
19.7764 0 0
19.8726 0 0
19.8726 0 0
19.9688 0 0
19.9688 0 0
20.0649 0 0
20.0649 0 0
20.1611 0 0
20.1611 0 0
20.2573 0 0
20.2573 0 0
20.3535 0 0
20.3535 0 0
20.4497 0 0
20.4497 0 0
20.5459 0 0
20.5459 0 0
20.6421 0 0
20.6421 0 0
20.7383 0 0
20.7383 0 0
20.8345 0 0
20.8345 0 0
20.9307 0 0
20.9307 0 0
21.0269 0 0
21.0269 0 0
21.123 0 0
21.123 0 0
21.2192 0 0
21.2192 0 0
21.3154 0 0
21.3154 0 0
21.4116 0 0
21.4116 0 0
21.5078 0 0
21.5078 0 0
21.604 0 0
21.604 0 0
21.7002 0 0
21.7002 0 0
21.7964 0 0
21.7964 0 0
21.8926 0 0
21.8926 0 0
21.9888 0 0
21.9888 0 0
22.085 0 0
22.085 0 0
22.1812 0 0
22.1812 0 0
22.2773 0 0
22.2773 0 0
22.3735 0 0
22.3735 0 0
22.4697 0 0
22.4697 0 0
22.5659 0 0
22.5659 0 0
22.6621 0 0
22.6621 0 0
22.7583 0 0
22.7583 0 0
22.8545 0 0
22.8545 0 0
22.9507 0 0
22.9507 0 0
23.0469 0 0
23.0469 0 0
23.1431 0 0
23.1431 0 0
23.2393 0 0
23.2393 0 0
23.3354 0 0
23.3354 0 0
23.4316 0 0
23.4316 0 0
23.5278 0 0
23.5278 0 0
23.624 0 0
23.624 0 0
23.7202 0 0
23.7202 0 0
23.8164 0 0
23.8164 0 0
23.9126 0 0
23.9126 0 0
24.0088 0 0
24.0088 0 0
24.105 0 0
24.105 0 0
24.2012 0 0
24.2012 0 0
24.2974 0 0
24.2974 0 0
24.3936 0 0
24.3936 0 0
24.4897 0 0
24.4897 0 0
24.5859 0 0
24.5859 0 0
24.6821 0 0
24.6821 0 0
24.7783 0 0
24.7783 0 0
24.8745 0 0
24.8745 0 0
24.9707 0 0
24.9707 0 0
25.0669 0 0
25.0669 0 0
25.1631 0 0
25.1631 0 0
25.2593 0 0
25.2593 0 0
25.3555 0 0
25.3555 0 0
25.4517 0 0
25.4517 0 0
25.5479 0 0
25.5479 0 0
25.644 0 0
25.644 0 0
25.7402 0 0
25.7402 0 0
25.8364 0 0
25.8364 0 0
25.9326 0 0
25.9326 0 0
26.0288 0 0
26.0288 0 0
26.125 0 0
26.125 0 0
26.2212 0 0
26.2212 0 0
26.3174 0 0
26.3174 0 0
26.4136 0 0
26.4136 0 0
26.5098 0 0
26.5098 0 0
26.606 0 0
26.606 0 0
26.7021 0 0
26.7021 0 0
26.7983 0 0
26.7983 0 0
26.8945 0 0
26.8945 0 0
26.9907 0 0
26.9907 0 0
27.0869 0 0
27.0869 0 0
27.1831 0 0
27.1831 0 0
27.2793 0 0
27.2793 0 0
27.3755 0 0
27.3755 0 0
27.4717 0 0
27.4717 0 0
27.5679 0 0
27.5679 0 0
27.6641 0 0
27.6641 0 0
27.7603 0 0
27.7603 0 0
27.8564 0 0
27.8564 0 0
27.9526 0 0
27.9526 0 0
28.0488 0 0
28.0488 0 0
28.145 0 0
28.145 0 0
28.2412 0 0
28.2412 0 0
28.3374 0 0
28.3374 0 0
28.4336 0 0
28.4336 0 0
28.5298 0 0
28.5298 0 0
28.626 0 0
28.626 0 0
28.7222 0 0
28.7222 0 0
28.8184 0 0
28.8184 0 0
28.9146 0 0
28.9146 0 0
29.0107 0 0
29.0107 0 0
29.1069 0 0
29.1069 0 0
29.2031 0 0
29.2031 0 0
29.2993 0 0
29.2993 0 0
29.3955 0 0
29.3955 0 0
29.4917 0 0
29.4917 0 0
29.5879 0 0
29.5879 0 0
29.6841 0 0
29.6841 0 0
29.7803 0 0
29.7803 0 0
29.8765 0 0
29.8765 0 0
29.9727 0 0
29.9727 0 0
30.0688 0 0
30.0688 0 0
30.165 0 0
30.165 0 0
30.2612 0 0
30.2612 0 0
30.3574 0 0
30.3574 0 0
30.4536 0 0
30.4536 0 0
30.5498 0 0
30.5498 0 0
30.646 0 0
30.646 0 0
30.7422 0 0
30.7422 0 0
30.8384 0 0
30.8384 0 0
30.9346 0 0
30.9346 0 0
31.0308 0 0
31.0308 0 0
31.127 0 0
31.127 0 0
31.2231 0 0
31.2231 0 0
31.3193 0 0
31.3193 0 0
31.4155 0 0
31.4155 0 0
31.5117 0 0
31.5117 0 0
31.6079 0 0
31.6079 0 0
31.7041 0 0
31.7041 0 0
31.8003 0 0
31.8003 0 0
31.8965 0 0
31.8965 0 0
31.9927 0 0
31.9927 0 0
32.0889 0 0
32.0889 0 0
32.1851 0 0
32.1851 0 0
32.2812 0 0
32.2812 0 0
32.3774 0 0
32.3774 0 0
32.4736 0 0
32.4736 0 0
32.5698 0 0
32.5698 0 0
32.666 0 0
32.666 0 0
32.7622 0 0
32.7622 0 0
32.8584 0 0
32.8584 0 0
32.9546 0 0
32.9546 0 0
33.0508 0 0
33.0508 0 0
33.147 0 0
33.147 0 0
33.2432 0 0
33.2432 0 0
33.3394 0 0
33.3394 0 0
33.4355 0 0
33.4355 0 0
33.5317 0 0
33.5317 0 0
33.6279 0 0
33.6279 0 0
33.7241 0 0
33.7241 0 0
33.8203 0 0
33.8203 0 0
33.9165 0 0
33.9165 0 0
34.0127 0 0
34.0127 0 0
34.1089 0 0
34.1089 0 0
34.2051 0 0
34.2051 0 0
34.3013 0 0
34.3013 0 0
34.3975 0 0
34.3975 0 0
34.4937 0 0
34.4937 0 0
34.5898 0 0
34.5898 0 0
34.686 0 0
34.686 0 0
34.7822 0 0
34.7822 0 0
34.8784 0 0
34.8784 0 0
34.9746 0 0
34.9746 0 0
35.0708 0 0
35.0708 0 0
35.167 0 0
35.167 0 0
35.2632 0 0
35.2632 0 0
35.3594 0 0
35.3594 0 0
35.4556 0 0
35.4556 0 0
35.5518 0 0
35.5518 0 0
35.6479 0 0
35.6479 0 0
35.7441 0 0
35.7441 0 0
35.8403 0 0
35.8403 0 0
35.9365 0 0
35.9365 0 0
36.0327 0 0
36.0327 0 0
36.1289 0 0
36.1289 0 0
36.2251 0 0
36.2251 0 0
36.3213 0 0
36.3213 0 0
36.4175 0 0
36.4175 0 0
36.5137 0 0
36.5137 0 0
36.6099 0 0
36.6099 0 0
36.7061 0 0
36.7061 0 0
36.8022 0 0
36.8022 0 0
36.8984 0 0
36.8984 0 0
36.9946 0 0
36.9946 0 0
37.0908 0 0
37.0908 0 0
37.187 0 0
37.187 0 0
37.2832 0 0
37.2832 0 0
37.3794 0 0
37.3794 0 0
37.4756 0 0
37.4756 0 0
37.5718 0 0
37.5718 0 0
37.668 0 0
37.668 0 0
37.7642 0 0
37.7642 0 0
37.8604 0 0
37.8604 0 0
37.9565 0 0
37.9565 0 0
38.0527 0 0
38.0527 0 0
38.1489 0 0
38.1489 0 0
38.2451 0 0
38.2451 0 0
38.3413 0 0
38.3413 0 0
38.4375 0 0
38.4375 0 0
38.5337 0 0
38.5337 0 0
38.6299 0 0
38.6299 0 0
38.7261 0 0
38.7261 0 0
38.8223 0 0
38.8223 0 0
38.9185 0 0
38.9185 0 0
39.0146 0 0
39.0146 0 0
39.1108 0 0
39.1108 0 0
39.207 0 0
39.207 0 0
39.3032 0 0
39.3032 0 0
39.3994 0 0
39.3994 0 0
39.4956 0 0
39.4956 0 0
39.5918 0 0
39.5918 0 0
39.688 0 0
39.688 0 0
39.7842 0 0
39.7842 0 0
39.8804 0 0
39.8804 0 0
39.9766 0 0
39.9766 0 0
40.0728 0 0
40.0728 0 0
40.1689 0 0
40.1689 0 0
40.2651 0 0
40.2651 0 0
40.3613 0 0
40.3613 0 0
40.4575 0 0
40.4575 0 0
40.5537 0 0
40.5537 0 0
40.6499 0 0
40.6499 0 0
40.7461 0 0
40.7461 0 0
40.8423 0 0
40.8423 0 0
40.9385 0 0
40.9385 0 0
41.0347 0 0
41.0347 0 0
41.1309 0 0
41.1309 0 0
41.2271 0 0
41.2271 0 0
[...]
POINT_DATA 2048
SCALARS solution_0 double 1
LOOKUP_TABLE default
1.75496 1.6011 1.6011 1.45452 1.45452 1.31404 1.31404 1.17871 1.17871 1.04784 1.04784 0.920852 0.920852 0.797317 0.797317 0.676882 0.676882 0.559263 0.559263 0.444236 0.444236 0.33162 0.33162 0.221268 0.221268 0.113063 0.113063 0.00691223 0.00691223 -0.097259 -0.097259 -0.199509 -0.199509 -0.299883 -0.299883 -0.398415 -0.398415 -0.495131 -0.495131 -0.590047 -0.590047 -0.683175 -0.683175 -0.774522 -0.774522 -0.864088 -0.864088 -0.951872 -0.951872 -1.03787 -1.03787 -1.12207 -1.12207 -1.20447 -1.20447 -1.28506 -1.28506 -1.36382 -1.36382 -1.44074 -1.44074 -1.51582 -1.51582 -1.58903 -1.58903 -1.66037 -1.66037 -1.72981 -1.72981 -1.79736 -1.79736 -1.863 -1.863 -1.92671 -1.92671 -1.98848 -1.98848 -2.04832 -2.04832 -2.1062 -2.1062 -2.16212 -2.16212 -2.21607 -2.21607 -2.26806 -2.26806 -2.31806 -2.31806 -2.36609 -2.36609 -2.41214 -2.41214 -2.4562 -2.4562 -2.49829 -2.49829 -2.5384 -2.5384 -2.57653 -2.57653 -2.6127 -2.6127 -2.6469 -2.6469 -2.67914 -2.67914 -2.70944 -2.70944 -2.73781 -2.73781 -2.76425 -2.76425 -2.78878 -2.78878 -2.81141 -2.81141 -2.83217 -2.83217 -2.85105 -2.85105 -2.8681 -2.8681 -2.88331 -2.88331 -2.89673 -2.89673 -2.90835 -2.90835 -2.91822 -2.91822 -2.92635 -2.92635 -2.93277 -2.93277 -2.9375 -2.9375 -2.94057 -2.94057 -2.94201 -2.94201 -2.94185 -2.94185 -2.94011 -2.94011 -2.93684 -2.93684 -2.93205 -2.93205 -2.92579 -2.92579 -2.91808 -2.91808 -2.90895 -2.90895 -2.89845 -2.89845 -2.88661 -2.88661 -2.87345 -2.87345 -2.85902 -2.85902 -2.84336 -2.84336 -2.82649 -2.82649 -2.80846 -2.80846 -2.78931 -2.78931 -2.76906 -2.76906 -2.74776 -2.74776 -2.72544 -2.72544 -2.70215 -2.70215 -2.67792 -2.67792 -2.65279 -2.65279 -2.62679 -2.62679 -2.59997 -2.59997 -2.57236 -2.57236 -2.544 -2.544 -2.51492 -2.51492 -2.48517 -2.48517 -2.45478 -2.45478 -2.42379 -2.42379 -2.39223 -2.39223 -2.36015 -2.36015 -2.32757 -2.32757 -2.29453 -2.29453 -2.26107 -2.26107 -2.22722 -2.22722 -2.19302 -2.19302 -2.15849 -2.15849 -2.12368 -2.12368 -2.08861 -2.08861 -2.05332 -2.05332 -2.01784 -2.01784 -1.9822 -1.9822 -1.94643 -1.94643 -1.91055 -1.91055 -1.8746 -1.8746 -1.83861 -1.83861 -1.8026 -1.8026 -1.76661 -1.76661 -1.73065 -1.73065 -1.69475 -1.69475 -1.65893 -1.65893 -1.62323 -1.62323 -1.58766 -1.58766 -1.55225 -1.55225 -1.51701 -1.51701 -1.48197 -1.48197 -1.44716 -1.44716 -1.41258 -1.41258 -1.37826 -1.37826 -1.34421 -1.34421 -1.31045 -1.31045 -1.27701 -1.27701 -1.24389 -1.24389 -1.2111 -1.2111 -1.17867 -1.17867 -1.14661 -1.14661 -1.11493 -1.11493 -1.08364 -1.08364 -1.05275 -1.05275 -1.02228 -1.02228 -0.992225 -0.992225 -0.962607 -0.962607 -0.93343 -0.93343 -0.904702 -0.904702 -0.876431 -0.876431 -0.848622 -0.848622 -0.821283 -0.821283 -0.794417 -0.794417 -0.76803 -0.76803 -0.742127 -0.742127 -0.71671 -0.71671 -0.691782 -0.691782 -0.667347 -0.667347 -0.643406 -0.643406 -0.61996 -0.61996 -0.597011 -0.597011 -0.574559 -0.574559 -0.552603 -0.552603 -0.531144 -0.531144 -0.51018 -0.51018 -0.489709 -0.489709 -0.469732 -0.469732 -0.450244 -0.450244 -0.431243 -0.431243 -0.412727 -0.412727 -0.394693 -0.394693 -0.377136 -0.377136 -0.360053 -0.360053 -0.34344 -0.34344 -0.327292 -0.327292 -0.311604 -0.311604 -0.296372 -0.296372 -0.281589 -0.281589 -0.267252 -0.267252 -0.253353 -0.253353 -0.239887 -0.239887 -0.226848 -0.226848 -0.21423 -0.21423 -0.202026 -0.202026 -0.190229 -0.190229 -0.178834 -0.178834 -0.167833 -0.167833 -0.157219 -0.157219 -0.146985 -0.146985 -0.137124 -0.137124 -0.127629 -0.127629 -0.118492 -0.118492 -0.109707 -0.109707 -0.101266 -0.101266 -0.0931611 -0.0931611 -0.0853853 -0.0853853 -0.0779312 -0.0779312 -0.0707912 -0.0707912 -0.063958 -0.063958 -0.0574241 -0.0574241 -0.0511821 -0.0511821 -0.0452245 -0.0452245 -0.0395441 -0.0395441 -0.0341334 -0.0341334 -0.0289853 -0.0289853 -0.0240924 -0.0240924 -0.0194476 -0.0194476 -0.0150439 -0.0150439 -0.0108741 -0.0108741 -0.00693129 -0.00693129 -0.00320858 -0.00320858 0.00030083 0.00030083 0.00360367 0.00360367 0.00670658 0.00670658 0.00961609 0.00961609 0.0123386 0.0123386 0.0148806 0.0148806 0.0172481 0.0172481 0.0194474 0.0194474 0.0214845 0.0214845 0.0233652 0.0233652 0.0250955 0.0250955 0.0266809 0.0266809 0.0281271 0.0281271 0.0294395 0.0294395 0.0306235 0.0306235 0.0316843 0.0316843 0.0326269 0.0326269 0.0334564 0.0334564 0.0341776 0.0341776 0.0347954 0.0347954 0.0353142 0.0353142 0.0357387 0.0357387 0.0360732 0.0360732 0.036322 0.036322 0.0364893 0.0364893 0.036579 0.036579 0.0365952 0.0365952 0.0365415 0.0365415 0.0364218 0.0364218 0.0362396 0.0362396 0.0359983 0.0359983 0.0357014 0.0357014 0.035352 0.035352 0.0349534 0.0349534 0.0345085 0.0345085 0.0340203 0.0340203 0.0334916 0.0334916 0.0329252 0.0329252 0.0323236 0.0323236 0.0316895 0.0316895 0.0310252 0.0310252 0.0303331 0.0303331 0.0296155 0.0296155 0.0288744 0.0288744 0.0281121 0.0281121 0.0273304 0.0273304 0.0265313 0.0265313 0.0257167 0.0257167 0.0248881 0.0248881 0.0240475 0.0240475 0.0231962 0.0231962 0.0223359 0.0223359 0.0214679 0.0214679 0.0205937 0.0205937 0.0197146 0.0197146 0.0188318 0.0188318 0.0179466 0.0179466 0.0170599 0.0170599 0.0161729 0.0161729 0.0152866 0.0152866 0.0144019 0.0144019 0.0135197 0.0135197 0.0126409 0.0126409 0.0117663 0.0117663 0.0108965 0.0108965 0.0100323 0.0100323 0.00917438 0.00917438 0.00832327 0.00832327 0.00747956 0.00747956 0.00664377 0.00664377 0.00581639 0.00581639 0.00499787 0.00499787 0.00418861 0.00418861 0.003389 0.003389 0.00259938 0.00259938 0.00182006 0.00182006 0.00105133 0.00105133 0.000293443 0.000293443 -0.000453372 -0.000453372 -0.00118891 -0.00118891 -0.001913 -0.001913 -0.00262548 -0.00262548 -0.00332623 -0.00332623 -0.00401512 -0.00401512 -0.00469208 -0.00469208 -0.00535703 -0.00535703 -0.00600991 -0.00600991 -0.00665069 -0.00665069 -0.00727935 -0.00727935 -0.00789588 -0.00789588 -0.00850029 -0.00850029 -0.00909261 -0.00909261 -0.00967287 -0.00967287 -0.0102411 -0.0102411 -0.0107974 -0.0107974 -0.0113418 -0.0113418 -0.0118744 -0.0118744 -0.0123953 -0.0123953 -0.0129045 -0.0129045 -0.0134022 -0.0134022 -0.0138885 -0.0138885 -0.0143635 -0.0143635 -0.0148273 -0.0148273 -0.0152801 -0.0152801 -0.0157219 -0.0157219 -0.016153 -0.016153 -0.0165734 -0.0165734 -0.0169833 -0.0169833 -0.0173828 -0.0173828 -0.0177722 -0.0177722 -0.0181515 -0.0181515 -0.0185209 -0.0185209 -0.0188805 -0.0188805 -0.0192306 -0.0192306 -0.0195713 -0.0195713 -0.0199026 -0.0199026 -0.0202249 -0.0202249 -0.0205382 -0.0205382 -0.0208428 -0.0208428 -0.0211387 -0.0211387 -0.0214261 -0.0214261 -0.0217052 -0.0217052 -0.0219762 -0.0219762 -0.0222391 -0.0222391 -0.0224943 -0.0224943 -0.0227417 -0.0227417 -0.0229816 -0.0229816 -0.0232142 -0.0232142 -0.0234395 -0.0234395 -0.0236577 -0.0236577 -0.023869 -0.023869 -0.0240735 -0.0240735 -0.0242714 -0.0242714 -0.0244628 -0.0244628 -0.0246478 -0.0246478 -0.0248266 -0.0248266 -0.0249993 -0.0249993 -0.0251661 -0.0251661 -0.025327 -0.025327 -0.0254823 -0.0254823 -0.025632 -0.025632 -0.0257763 -0.0257763 -0.0259153 -0.0259153 -0.026049 -0.026049 -0.0261777 -0.0261777 -0.0263015 -0.0263015 -0.0264204 -0.0264204 -0.0265346 -0.0265346 -0.0266442 -0.0266442 -0.0267492 -0.0267492 -0.0268499 -0.0268499 -0.0269463 -0.0269463 -0.0270385 -0.0270385 -0.0271265 -0.0271265 -0.0272106 -0.0272106 -0.0272908 -0.0272908 -0.0273672 -0.0273672 -0.0274399 -0.0274399 -0.027509 -0.027509 -0.0275745 -0.0275745 -0.0276366 -0.0276366 -0.0276953 -0.0276953 -0.0277508 -0.0277508 -0.027803 -0.027803 -0.0278521 -0.0278521 -0.0278983 -0.0278983 -0.0279414 -0.0279414 -0.0279817 -0.0279817 -0.0280191 -0.0280191 -0.0280539 -0.0280539 -0.0280859 -0.0280859 -0.0281154 -0.0281154 -0.0281424 -0.0281424 -0.0281669 -0.0281669 -0.028189 -0.028189 -0.0282088 -0.0282088 -0.0282263 -0.0282263 -0.0282416 -0.0282416 -0.0282548 -0.0282548 -0.0282659 -0.0282659 -0.028275 -0.028275 -0.0282822 -0.0282822 -0.0282874 -0.0282874 -0.0282908 -0.0282908 -0.0282925 -0.0282925 -0.0282924 -0.0282924 -0.0282906 -0.0282906 -0.0282872 -0.0282872 -0.0282822 -0.0282822 -0.0282757 -0.0282757 -0.0282677 -0.0282677 -0.0282584 -0.0282584 -0.0282476 -0.0282476 -0.0282356 -0.0282356 -0.0282222 -0.0282222 -0.0282077 -0.0282077 -0.0281919 -0.0281919 -0.0281751 -0.0281751 -0.0281571 -0.0281571 -0.0281381 -0.0281381 -0.0281181 -0.0281181 -0.0280972 -0.0280972 -0.0280753 -0.0280753 -0.0280525 -0.0280525 -0.028029 -0.028029 -0.0280046 -0.0280046 -0.0279795 -0.0279795 -0.0279537 -0.0279537 -0.0279271 -0.0279271 -0.0279 -0.0279 -0.0278722 -0.0278722 -0.0278439 -0.0278439 -0.0278151 -0.0278151 -0.0277857 -0.0277857 -0.0277559 -0.0277559 -0.0277257 -0.0277257 -0.027695 -0.027695 -0.027664 -0.027664 -0.0276326 -0.0276326 -0.0276009 -0.0276009 -0.027569 -0.027569 -0.0275367 -0.0275367 -0.0275043 -0.0275043 -0.0274716 -0.0274716 -0.0274388 -0.0274388 -0.0274057 -0.0274057 -0.0273726 -0.0273726 -0.0273393 -0.0273393 -0.0273059 -0.0273059 -0.0272725 -0.0272725 -0.027239 -0.027239 -0.0272054 -0.0272054 -0.0271718 -0.0271718 -0.0271382 -0.0271382 -0.0271045 -0.0271045 -0.0270709 -0.0270709 -0.0270373 -0.0270373 -0.0270037 -0.0270037 -0.0269702 -0.0269702 -0.0269367 -0.0269367 -0.0269032 -0.0269032 -0.0268698 -0.0268698 -0.0268365 -0.0268365 -0.0268032 -0.0268032 -0.0267699 -0.0267699 -0.0267368 -0.0267368 -0.0267036 -0.0267036 -0.0266706 -0.0266706 -0.0266375 -0.0266375 -0.0266046 -0.0266046 -0.0265716 -0.0265716 -0.0265387 -0.0265387 -0.0265058 -0.0265058 -0.026473 -0.026473 -0.0264401 -0.0264401 -0.0264072 -0.0264072 -0.0263743 -0.0263743 -0.0263414 -0.0263414 -0.0263084 -0.0263084 -0.0262753 -0.0262753 -0.0262422 -0.0262422 -0.0262089 -0.0262089 -0.0261756 -0.0261756 -0.0261421 -0.0261421 -0.0261085 -0.0261085 -0.0260747 -0.0260747 -0.0260407 -0.0260407 -0.0260065 -0.0260065 -0.025972 -0.025972 -0.0259373 -0.0259373 -0.0259023 -0.0259023 -0.025867 -0.025867 -0.0258314 -0.0258314 -0.0257954 -0.0257954 -0.025759 -0.025759 -0.0257223 -0.0257223 -0.0256851 -0.0256851 -0.0256475 -0.0256475 -0.0256094 -0.0256094 -0.0255709 -0.0255709 -0.0255318 -0.0255318 -0.0254921 -0.0254921 -0.0254519 -0.0254519 -0.0254112 -0.0254112 -0.0253698 -0.0253698 -0.0253278 -0.0253278 -0.0252851 -0.0252851 -0.0252417 -0.0252417 -0.0251977 -0.0251977 -0.025153 -0.025153 -0.0251075 -0.0251075 -0.0250612 -0.0250612 -0.0250142 -0.0250142 -0.0249664 -0.0249664 -0.0249178 -0.0249178 -0.0248684 -0.0248684 -0.0248182 -0.0248182 -0.0247671 -0.0247671 -0.0247151 -0.0247151 -0.0246623 -0.0246623 -0.0246086 -0.0246086 -0.024554 -0.024554 -0.0244985 -0.0244985 -0.0244421 -0.0244421 -0.0243848 -0.0243848 -0.0243265 -0.0243265 -0.0242674 -0.0242674 -0.0242073 -0.0242073 -0.0241463 -0.0241463 -0.0240843 -0.0240843 -0.0240214 -0.0240214 -0.0239576 -0.0239576 -0.0238929 -0.0238929 -0.0238273 -0.0238273 -0.0237607 -0.0237607 -0.0236932 -0.0236932 -0.0236249 -0.0236249 -0.0235556 -0.0235556 -0.0234854 -0.0234854 -0.0234144 -0.0234144 -0.0233425 -0.0233425 -0.0232698 -0.0232698 -0.0231962 -0.0231962 -0.0231218 -0.0231218 -0.0230466 -0.0230466 -0.0229705 -0.0229705 -0.0228938 -0.0228938 -0.0228162 -0.0228162 -0.0227379 -0.0227379 -0.0226589 -0.0226589 -0.0225792 -0.0225792 -0.0224988 -0.0224988 -0.0224177 -0.0224177 -0.022336 -0.022336 -0.0222537 -0.0222537 -0.0221708 -0.0221708 -0.0220873 -0.0220873 -0.0220033 -0.0220033 -0.0219187 -0.0219187 -0.0218336 -0.0218336 -0.0217481 -0.0217481 -0.0216621 -0.0216621 -0.0215757 -0.0215757 -0.0214888 -0.0214888 -0.0214016 -0.0214016 -0.021314 -0.021314 -0.0212261 -0.0212261 -0.0211379 -0.0211379 -0.0210494 -0.0210494 -0.0209606 -0.0209606 -0.0208716 -0.0208716 -0.0207824 -0.0207824 -0.020693 -0.020693 -0.0206034 -0.0206034 -0.0205137 -0.0205137 -0.0204239 -0.0204239 -0.020334 -0.020334 -0.020244 -0.020244 -0.0201539 -0.0201539 -0.0200638 -0.0200638 -0.0199737 -0.0199737 -0.0198836 -0.0198836 -0.0197935 -0.0197935 -0.0197035 -0.0197035 -0.0196135 -0.0196135 -0.0195237 -0.0195237 -0.0194339 -0.0194339 -0.0193442 -0.0193442 -0.0192547 -0.0192547 -0.0191653 -0.0191653 -0.019076 -0.019076 -0.0189869 -0.0189869 -0.0188981 -0.0188981 -0.0188094 -0.0188094 -0.0187209 -0.0187209 -0.0186327 -0.0186327 -0.0185446 -0.0185446 -0.0184569 -0.0184569 -0.0183693 -0.0183693 -0.0182821 -0.0182821 -0.0181951 -0.0181951 -0.0181084 -0.0181084 -0.0180219 -0.0180219 -0.0179358 -0.0179358 -0.0178499 -0.0178499 -0.0177643 -0.0177643 -0.0176791 -0.0176791 -0.0175941 -0.0175941 -0.0175095 -0.0175095 -0.0174251 -0.0174251 -0.0173411 -0.0173411 -0.0172574 -0.0172574 -0.017174 -0.017174 -0.0170909 -0.0170909 -0.0170081 -0.0170081 -0.0169257 -0.0169257 -0.0168435 -0.0168435 -0.0167617 -0.0167617 -0.0166802 -0.0166802 -0.016599 -0.016599 -0.0165181 -0.0165181 -0.0164375 -0.0164375 -0.0163572 -0.0163572 -0.0162772 -0.0162772 -0.0161975 -0.0161975 -0.0161181 -0.0161181 -0.016039 -0.016039 -0.0159602 -0.0159602 -0.0158816 -0.0158816 -0.0158034 -0.0158034 -0.0157253 -0.0157253 -0.0156476 -0.0156476 -0.0155701 -0.0155701 -0.0154929 -0.0154929 -0.0154159 -0.0154159 -0.0153391 -0.0153391 -0.0152626 -0.0152626 -0.0151864 -0.0151864 -0.0151103 -0.0151103 -0.0150345 -0.0150345 -0.0149589 -0.0149589 -0.0148835 -0.0148835 -0.0148083 -0.0148083 -0.0147333 -0.0147333 -0.0146585 -0.0146585 -0.0145839 -0.0145839 -0.0145095 -0.0145095 -0.0144352 -0.0144352 -0.0143611 -0.0143611 -0.0142872 -0.0142872 -0.0142135 -0.0142135 -0.0141399 -0.0141399 -0.0140665 -0.0140665 -0.0139932 -0.0139932 -0.0139201 -0.0139201 -0.0138471 -0.0138471 -0.0137743 -0.0137743 -0.0137015 -0.0137015 -0.013629 -0.013629 -0.0135565 -0.0135565 -0.0134842 -0.0134842 -0.0134119 -0.0134119 -0.0133398 -0.0133398 -0.0132679 -0.0132679 -0.013196 -0.013196 -0.0131242 -0.0131242 -0.0130526 -0.0130526 -0.012981 -0.012981 -0.0129095 -0.0129095 -0.0128382 -0.0128382 -0.0127669 -0.0127669 -0.0126958 -0.0126958 -0.0126247 -0.0126247 -0.0125538 -0.0125538 -0.0124829 -0.0124829 -0.0124121 -0.0124121 -0.0123414 -0.0123414 -0.0122708 -0.0122708 -0.0122003 -0.0122003 -0.0121299 -0.0121299 -0.0120596 -0.0120596 -0.0119894 -0.0119894 -0.0119193 -0.0119193 -0.0118493 -0.0118493 -0.0117794 -0.0117794 -0.0117095 -0.0117095 -0.0116398 -0.0116398 -0.0115702 -0.0115702 -0.0115007 -0.0115007 -0.0114313 -0.0114313 -0.011362 -0.011362 -0.0112928 -0.0112928 -0.0112237 -0.0112237 -0.0111548 -0.0111548 -0.0110859 -0.0110859 -0.0110172 -0.0110172 -0.0109487 -0.0109487 -0.0108802 -0.0108802 -0.0108119 -0.0108119 -0.0107437 -0.0107437 -0.0106757 -0.0106757 -0.0106078 -0.0106078 -0.01054 -0.01054 -0.0104725 -0.0104725 -0.010405 -0.010405 -0.0103378 -0.0103378 -0.0102707 -0.0102707 -0.0102038 -0.0102038 -0.0101371 -0.0101371 -0.0100705 -0.0100705 -0.0100042 -0.0100042 -0.009938 -0.009938 -0.00987204 -0.00987204 -0.0098063 -0.0098063 -0.00974077 -0.00974077 -0.00967546 -0.00967546 -0.00961037 -0.00961037 -0.00954552 -0.00954552 -0.00948091 -0.00948091 -0.00941654 -0.00941654 -0.00935242 -0.00935242 -0.00928855 -0.00928855 -0.00922495 -0.00922495 -0.00916162 -0.00916162 -0.00909856 -0.00909856 -0.00903578 -0.00903578 -0.00897328 -0.00897328 -0.00891107 -0.00891107 -0.00884916 -0.00884916 -0.00878756 -0.00878756 -0.00872625 -0.00872625 -0.00866526 -0.00866526 -0.00860459 -0.00860459 -0.00854423 -0.00854423 -0.00848419 -0.00848419 -0.00842449 -0.00842449 -0.00836511 -0.00836511 -0.00830606 -0.00830606 -0.00824735 -0.00824735 -0.00818897 -0.00818897 -0.00813093 -0.00813093 -0.00807323 -0.00807323 -0.00801586 -0.00801586 -0.00795882 -0.00795882 -0.00790212 -0.00790212 -0.00784575 -0.00784575 -0.00778971 -0.00778971 -0.00773398 -0.00773398 -0.00767857 -0.00767857 -0.00762347 -0.00762347 -0.00756867 -0.00756867 -0.00751416 -0.00751416 -0.00745993 -0.00745993 -0.00740596 -0.00740596 -0.00735225 -0.00735225 -0.00729877 -0.00729877 -0.00724552 -0.00724552 -0.00719246 -0.00719246 -0.00713958 -0.00713958 -0.00708686 -0.00708686 -0.00703427 -0.00703427 -0.00698178 -0.00698178 -0.00692936 -0.00692936 -0.00687699 -0.00687699 -0.00682462 -0.00682462 -0.00677221 -0.00677221 -0.00671973 -0.00671973 -0.00666713 -0.00666713 -0.00661436 -0.00661436 -0.00656138 -0.00656138 -0.00650812 -0.00650812 -0.00645454 -0.00645454 -0.00640056 -0.00640056 -0.00634612 -0.00634612 -0.00629116 -0.00629116 -0.0062356 -0.0062356 -0.00617935 -0.00617935 -0.00612235 -0.00612235 -0.00606448 -0.00606448 -0.00600568 -0.00600568 -0.00594582 -0.00594582 -0.00588482 -0.00588482 -0.00582255 -0.00582255 -0.00575891 -0.00575891 -0.00569378 -0.00569378 -0.00562701 -0.00562701 -0.00555849 -0.00555849 -0.00548806 -0.00548806 -0.00541557 -0.00541557 -0.00534088 -0.00534088 -0.00526382 -0.00526382 -0.00518422 -0.00518422 -0.00510189 -0.00510189 -0.00501666 -0.00501666 -0.00492833 -0.00492833 -0.00483668 -0.00483668 -0.00474152 -0.00474152 -0.00464261 -0.00464261 -0.00453974 -0.00453974 -0.00443264 -0.00443264 -0.00432109 -0.00432109 -0.00420481 -0.00420481 -0.00408354 -0.00408354 -0.003957 -0.003957 -0.00382489 -0.00382489 -0.00368691 -0.00368691 -0.00354275 -0.00354275 -0.00339208 -0.00339208 -0.00323458 -0.00323458 -0.00306988 -0.00306988 -0.00289764 -0.00289764 -0.00271748 -0.00271748 -0.00252901 -0.00252901 -0.00233185 -0.00233185 -0.00212557 -0.00212557 -0.00190977 -0.00190977 -0.00168401 -0.00168401 -0.00144784 -0.00144784 -0.0012008 -0.0012008 -0.000942421 -0.000942421 -0.000672212 -0.000672212 -0.000389676 -0.000389676 -9.42995e-05 -9.42995e-05 0.000214443 0.000214443 0.000537091 0.000537091 0.000874197 0.000874197 0.00122633 0.00122633 0.00159406 0.00159406 0.001978 0.001978 0.00237873 0.00237873 0.00279689 0.00279689 0.00323311 0.00323311 0.00368802 0.00368802 0.00416229 0.00416229 0.00465659 0.00465659 0.0051716 0.0051716 0.00570802 0.00570802 0.00626654 0.00626654 0.0068479 0.0068479 0.00745281 0.00745281 0.00808202 0.00808202 0.00873628 0.00873628 0.00941635 0.00941635 0.010123 0.010123 0.010857 0.010857 0.0116191 0.0116191 0.0124102 0.0124102 0.013231 0.013231 0.0140823 0.0140823 0.0149651 0.0149651 0.0158799 0.0158799 0.0168278 0.0168278 0.0178096 0.0178096 0.0188259 0.0188259 0.0198778 0.0198778 0.020966 0.020966 0.0220913 0.0220913 0.0232547 0.0232547 0.0244569 0.0244569 0.0256987 0.0256987 0.026981 0.026981 0.0283045 0.0283045 0.0296702 0.0296702 0.0310788 0.0310788 0.0325311 0.0325311 0.0340279 0.0340279 0.03557 0.03557 0.0371581 0.0371581 0.038793 0.038793 0.0404754 0.0404754 0.042206 0.042206 0.0439856 0.0439856 0.0458147 0.0458147 0.0476942 0.0476942 0.0496245 0.0496245 0.0516063 0.0516063 0.0536402 0.0536402 0.0557268 0.0557268 0.0578665 0.0578665 0.0600599 0.0600599 0.0623073 0.0623073 0.0646094 0.0646094 0.0669664 0.0669664 0.0693786 0.0693786 0.0718465 0.0718465 0.0743702 0.0743702 0.07695 0.07695 0.0795861 0.0795861 0.0822786 0.0822786 0.0850276 0.0850276 0.0878331 0.0878331 0.0906952 0.0906952 0.0936136 0.0936136 0.0965884 0.0965884 0.0996193 0.0996193 0.102706 0.102706 0.105848 0.105848 0.109046 0.109046 0.112298 0.112298 0.115605 0.115605 0.118965 0.118965 0.122378 0.122378 0.125844 0.125844 0.129361 0.129361 0.132929 0.132929 0.136547 0.136547 0.140214 0.140214 0.143928 0.143928 0.147689 0.147689 0.151495 0.151495 0.155345 0.155345 0.159238 0.159238 0.163172 0.163172 0.167146 0.167146 0.171157 0.171157 0.175205 0.175205 0.179287 0.179287 0.183402 0.183402 0.187547 0.187547 0.19172 0.19172 0.19592 0.19592 0.200144 0.200144 0.204389 0.204389 0.208654 0.208654 0.212936 0.212936 0.217232 0.217232 0.221539 0.221539 0.225855 0.225855 0.230178 0.230178 0.234503 0.234503 0.238828 0.238828 0.243151 0.243151 0.247467 0.247467 0.251774 0.251774 0.256069 0.256069 0.260347 0.260347 0.264606 0.264606 0.268843 0.268843 0.273052 0.273052 0.277232 0.277232 0.281377 0.281377 0.285485 0.285485 0.289552 0.289552 0.293574 0.293574 0.297546 0.297546 0.301465 0.301465 0.305327 0.305327 0.309128 0.309128 0.312864 0.312864 0.31653 0.31653 0.320123 0.320123 0.323638 0.323638 0.327071 0.327071 0.330418 0.330418 0.333675 0.333675 0.336837 0.336837 0.3399 0.3399 0.342861 0.342861 0.345714 0.345714 0.348455 0.348455 0.351081 0.351081 0.353587 0.353587 0.355969 0.355969 0.358223 0.358223 0.360344 0.360344 0.362329 0.362329 0.364173 0.364173 0.365873 0.365873 0.367425 0.367425 0.368