# vtk DataFile Version 3.0
#This file was generated by the deal.II library on 2020/9/1 at 14:41:25
ASCII
DATASET UNSTRUCTURED_GRID

POINTS 2048 double
1.5 0 0
1.59619 0 0
1.59619 0 0
1.69238 0 0
1.69238 0 0
1.78857 0 0
1.78857 0 0
1.88477 0 0
1.88477 0 0
1.98096 0 0
1.98096 0 0
2.07715 0 0
2.07715 0 0
2.17334 0 0
2.17334 0 0
2.26953 0 0
2.26953 0 0
2.36572 0 0
2.36572 0 0
2.46191 0 0
2.46191 0 0
2.55811 0 0
2.55811 0 0
2.6543 0 0
2.6543 0 0
2.75049 0 0
2.75049 0 0
2.84668 0 0
2.84668 0 0
2.94287 0 0
2.94287 0 0
3.03906 0 0
3.03906 0 0
3.13525 0 0
3.13525 0 0
3.23145 0 0
3.23145 0 0
3.32764 0 0
3.32764 0 0
3.42383 0 0
3.42383 0 0
3.52002 0 0
3.52002 0 0
3.61621 0 0
3.61621 0 0
3.7124 0 0
3.7124 0 0
3.80859 0 0
3.80859 0 0
3.90479 0 0
3.90479 0 0
4.00098 0 0
4.00098 0 0
4.09717 0 0
4.09717 0 0
4.19336 0 0
4.19336 0 0
4.28955 0 0
4.28955 0 0
4.38574 0 0
4.38574 0 0
4.48193 0 0
4.48193 0 0
4.57812 0 0
4.57812 0 0
4.67432 0 0
4.67432 0 0
4.77051 0 0
4.77051 0 0
4.8667 0 0
4.8667 0 0
4.96289 0 0
4.96289 0 0
5.05908 0 0
5.05908 0 0
5.15527 0 0
5.15527 0 0
5.25146 0 0
5.25146 0 0
5.34766 0 0
5.34766 0 0
5.44385 0 0
5.44385 0 0
5.54004 0 0
5.54004 0 0
5.63623 0 0
5.63623 0 0
5.73242 0 0
5.73242 0 0
5.82861 0 0
5.82861 0 0
5.9248 0 0
5.9248 0 0
6.021 0 0
6.021 0 0
6.11719 0 0
6.11719 0 0
6.21338 0 0
6.21338 0 0
6.30957 0 0
6.30957 0 0
6.40576 0 0
6.40576 0 0
6.50195 0 0
6.50195 0 0
6.59814 0 0
6.59814 0 0
6.69434 0 0
6.69434 0 0
6.79053 0 0
6.79053 0 0
6.88672 0 0
6.88672 0 0
6.98291 0 0
6.98291 0 0
7.0791 0 0
7.0791 0 0
7.17529 0 0
7.17529 0 0
7.27148 0 0
7.27148 0 0
7.36768 0 0
7.36768 0 0
7.46387 0 0
7.46387 0 0
7.56006 0 0
7.56006 0 0
7.65625 0 0
7.65625 0 0
7.75244 0 0
7.75244 0 0
7.84863 0 0
7.84863 0 0
7.94482 0 0
7.94482 0 0
8.04102 0 0
8.04102 0 0
8.13721 0 0
8.13721 0 0
8.2334 0 0
8.2334 0 0
8.32959 0 0
8.32959 0 0
8.42578 0 0
8.42578 0 0
8.52197 0 0
8.52197 0 0
8.61816 0 0
8.61816 0 0
8.71436 0 0
8.71436 0 0
8.81055 0 0
8.81055 0 0
8.90674 0 0
8.90674 0 0
9.00293 0 0
9.00293 0 0
9.09912 0 0
9.09912 0 0
9.19531 0 0
9.19531 0 0
9.2915 0 0
9.2915 0 0
9.3877 0 0
9.3877 0 0
9.48389 0 0
9.48389 0 0
9.58008 0 0
9.58008 0 0
9.67627 0 0
9.67627 0 0
9.77246 0 0
9.77246 0 0
9.86865 0 0
9.86865 0 0
9.96484 0 0
9.96484 0 0
10.061 0 0
10.061 0 0
10.1572 0 0
10.1572 0 0
10.2534 0 0
10.2534 0 0
10.3496 0 0
10.3496 0 0
10.4458 0 0
10.4458 0 0
10.542 0 0
10.542 0 0
10.6382 0 0
10.6382 0 0
10.7344 0 0
10.7344 0 0
10.8306 0 0
10.8306 0 0
10.9268 0 0
10.9268 0 0
11.0229 0 0
11.0229 0 0
11.1191 0 0
11.1191 0 0
11.2153 0 0
11.2153 0 0
11.3115 0 0
11.3115 0 0
11.4077 0 0
11.4077 0 0
11.5039 0 0
11.5039 0 0
11.6001 0 0
11.6001 0 0
11.6963 0 0
11.6963 0 0
11.7925 0 0
11.7925 0 0
11.8887 0 0
11.8887 0 0
11.9849 0 0
11.9849 0 0
12.0811 0 0
12.0811 0 0
12.1772 0 0
12.1772 0 0
12.2734 0 0
12.2734 0 0
12.3696 0 0
12.3696 0 0
12.4658 0 0
12.4658 0 0
12.562 0 0
12.562 0 0
12.6582 0 0
12.6582 0 0
12.7544 0 0
12.7544 0 0
12.8506 0 0
12.8506 0 0
12.9468 0 0
12.9468 0 0
13.043 0 0
13.043 0 0
13.1392 0 0
13.1392 0 0
13.2354 0 0
13.2354 0 0
13.3315 0 0
13.3315 0 0
13.4277 0 0
13.4277 0 0
13.5239 0 0
13.5239 0 0
13.6201 0 0
13.6201 0 0
13.7163 0 0
13.7163 0 0
13.8125 0 0
13.8125 0 0
13.9087 0 0
13.9087 0 0
14.0049 0 0
14.0049 0 0
14.1011 0 0
14.1011 0 0
14.1973 0 0
14.1973 0 0
14.2935 0 0
14.2935 0 0
14.3896 0 0
14.3896 0 0
14.4858 0 0
14.4858 0 0
14.582 0 0
14.582 0 0
14.6782 0 0
14.6782 0 0
14.7744 0 0
14.7744 0 0
14.8706 0 0
14.8706 0 0
14.9668 0 0
14.9668 0 0
15.063 0 0
15.063 0 0
15.1592 0 0
15.1592 0 0
15.2554 0 0
15.2554 0 0
15.3516 0 0
15.3516 0 0
15.4478 0 0
15.4478 0 0
15.5439 0 0
15.5439 0 0
15.6401 0 0
15.6401 0 0
15.7363 0 0
15.7363 0 0
15.8325 0 0
15.8325 0 0
15.9287 0 0
15.9287 0 0
16.0249 0 0
16.0249 0 0
16.1211 0 0
16.1211 0 0
16.2173 0 0
16.2173 0 0
16.3135 0 0
16.3135 0 0
16.4097 0 0
16.4097 0 0
16.5059 0 0
16.5059 0 0
16.6021 0 0
16.6021 0 0
16.6982 0 0
16.6982 0 0
16.7944 0 0
16.7944 0 0
16.8906 0 0
16.8906 0 0
16.9868 0 0
16.9868 0 0
17.083 0 0
17.083 0 0
17.1792 0 0
17.1792 0 0
17.2754 0 0
17.2754 0 0
17.3716 0 0
17.3716 0 0
17.4678 0 0
17.4678 0 0
17.564 0 0
17.564 0 0
17.6602 0 0
17.6602 0 0
17.7563 0 0
17.7563 0 0
17.8525 0 0
17.8525 0 0
17.9487 0 0
17.9487 0 0
18.0449 0 0
18.0449 0 0
18.1411 0 0
18.1411 0 0
18.2373 0 0
18.2373 0 0
18.3335 0 0
18.3335 0 0
18.4297 0 0
18.4297 0 0
18.5259 0 0
18.5259 0 0
18.6221 0 0
18.6221 0 0
18.7183 0 0
18.7183 0 0
18.8145 0 0
18.8145 0 0
18.9106 0 0
18.9106 0 0
19.0068 0 0
19.0068 0 0
19.103 0 0
19.103 0 0
19.1992 0 0
19.1992 0 0
19.2954 0 0
19.2954 0 0
19.3916 0 0
19.3916 0 0
19.4878 0 0
19.4878 0 0
19.584 0 0
19.584 0 0
19.6802 0 0
19.6802 0 0
19.7764 0 0
19.7764 0 0
19.8726 0 0
19.8726 0 0
19.9688 0 0
19.9688 0 0
20.0649 0 0
20.0649 0 0
20.1611 0 0
20.1611 0 0
20.2573 0 0
20.2573 0 0
20.3535 0 0
20.3535 0 0
20.4497 0 0
20.4497 0 0
20.5459 0 0
20.5459 0 0
20.6421 0 0
20.6421 0 0
20.7383 0 0
20.7383 0 0
20.8345 0 0
20.8345 0 0
20.9307 0 0
20.9307 0 0
21.0269 0 0
21.0269 0 0
21.123 0 0
21.123 0 0
21.2192 0 0
21.2192 0 0
21.3154 0 0
21.3154 0 0
21.4116 0 0
21.4116 0 0
21.5078 0 0
21.5078 0 0
21.604 0 0
21.604 0 0
21.7002 0 0
21.7002 0 0
21.7964 0 0
21.7964 0 0
21.8926 0 0
21.8926 0 0
21.9888 0 0
21.9888 0 0
22.085 0 0
22.085 0 0
22.1812 0 0
22.1812 0 0
22.2773 0 0
22.2773 0 0
22.3735 0 0
22.3735 0 0
22.4697 0 0
22.4697 0 0
22.5659 0 0
22.5659 0 0
22.6621 0 0
22.6621 0 0
22.7583 0 0
22.7583 0 0
22.8545 0 0
22.8545 0 0
22.9507 0 0
22.9507 0 0
23.0469 0 0
23.0469 0 0
23.1431 0 0
23.1431 0 0
23.2393 0 0
23.2393 0 0
23.3354 0 0
23.3354 0 0
23.4316 0 0
23.4316 0 0
23.5278 0 0
23.5278 0 0
23.624 0 0
23.624 0 0
23.7202 0 0
23.7202 0 0
23.8164 0 0
23.8164 0 0
23.9126 0 0
23.9126 0 0
24.0088 0 0
24.0088 0 0
24.105 0 0
24.105 0 0
24.2012 0 0
24.2012 0 0
24.2974 0 0
24.2974 0 0
24.3936 0 0
24.3936 0 0
24.4897 0 0
24.4897 0 0
24.5859 0 0
24.5859 0 0
24.6821 0 0
24.6821 0 0
24.7783 0 0
24.7783 0 0
24.8745 0 0
24.8745 0 0
24.9707 0 0
24.9707 0 0
25.0669 0 0
25.0669 0 0
25.1631 0 0
25.1631 0 0
25.2593 0 0
25.2593 0 0
25.3555 0 0
25.3555 0 0
25.4517 0 0
25.4517 0 0
25.5479 0 0
25.5479 0 0
25.644 0 0
25.644 0 0
25.7402 0 0
25.7402 0 0
25.8364 0 0
25.8364 0 0
25.9326 0 0
25.9326 0 0
26.0288 0 0
26.0288 0 0
26.125 0 0
26.125 0 0
26.2212 0 0
26.2212 0 0
26.3174 0 0
26.3174 0 0
26.4136 0 0
26.4136 0 0
26.5098 0 0
26.5098 0 0
26.606 0 0
26.606 0 0
26.7021 0 0
26.7021 0 0
26.7983 0 0
26.7983 0 0
26.8945 0 0
26.8945 0 0
26.9907 0 0
26.9907 0 0
27.0869 0 0
27.0869 0 0
27.1831 0 0
27.1831 0 0
27.2793 0 0
27.2793 0 0
27.3755 0 0
27.3755 0 0
27.4717 0 0
27.4717 0 0
27.5679 0 0
27.5679 0 0
27.6641 0 0
27.6641 0 0
27.7603 0 0
27.7603 0 0
27.8564 0 0
27.8564 0 0
27.9526 0 0
27.9526 0 0
28.0488 0 0
28.0488 0 0
28.145 0 0
28.145 0 0
28.2412 0 0
28.2412 0 0
28.3374 0 0
28.3374 0 0
28.4336 0 0
28.4336 0 0
28.5298 0 0
28.5298 0 0
28.626 0 0
28.626 0 0
28.7222 0 0
28.7222 0 0
28.8184 0 0
28.8184 0 0
28.9146 0 0
28.9146 0 0
29.0107 0 0
29.0107 0 0
29.1069 0 0
29.1069 0 0
29.2031 0 0
29.2031 0 0
29.2993 0 0
29.2993 0 0
29.3955 0 0
29.3955 0 0
29.4917 0 0
29.4917 0 0
29.5879 0 0
29.5879 0 0
29.6841 0 0
29.6841 0 0
29.7803 0 0
29.7803 0 0
29.8765 0 0
29.8765 0 0
29.9727 0 0
29.9727 0 0
30.0688 0 0
30.0688 0 0
30.165 0 0
30.165 0 0
30.2612 0 0
30.2612 0 0
30.3574 0 0
30.3574 0 0
30.4536 0 0
30.4536 0 0
30.5498 0 0
30.5498 0 0
30.646 0 0
30.646 0 0
30.7422 0 0
30.7422 0 0
30.8384 0 0
30.8384 0 0
30.9346 0 0
30.9346 0 0
31.0308 0 0
31.0308 0 0
31.127 0 0
31.127 0 0
31.2231 0 0
31.2231 0 0
31.3193 0 0
31.3193 0 0
31.4155 0 0
31.4155 0 0
31.5117 0 0
31.5117 0 0
31.6079 0 0
31.6079 0 0
31.7041 0 0
31.7041 0 0
31.8003 0 0
31.8003 0 0
31.8965 0 0
31.8965 0 0
31.9927 0 0
31.9927 0 0
32.0889 0 0
32.0889 0 0
32.1851 0 0
32.1851 0 0
32.2812 0 0
32.2812 0 0
32.3774 0 0
32.3774 0 0
32.4736 0 0
32.4736 0 0
32.5698 0 0
32.5698 0 0
32.666 0 0
32.666 0 0
32.7622 0 0
32.7622 0 0
32.8584 0 0
32.8584 0 0
32.9546 0 0
32.9546 0 0
33.0508 0 0
33.0508 0 0
33.147 0 0
33.147 0 0
33.2432 0 0
33.2432 0 0
33.3394 0 0
33.3394 0 0
33.4355 0 0
33.4355 0 0
33.5317 0 0
33.5317 0 0
33.6279 0 0
33.6279 0 0
33.7241 0 0
33.7241 0 0
33.8203 0 0
33.8203 0 0
33.9165 0 0
33.9165 0 0
34.0127 0 0
34.0127 0 0
34.1089 0 0
34.1089 0 0
34.2051 0 0
34.2051 0 0
34.3013 0 0
34.3013 0 0
34.3975 0 0
34.3975 0 0
34.4937 0 0
34.4937 0 0
34.5898 0 0
34.5898 0 0
34.686 0 0
34.686 0 0
34.7822 0 0
34.7822 0 0
34.8784 0 0
34.8784 0 0
34.9746 0 0
34.9746 0 0
35.0708 0 0
35.0708 0 0
35.167 0 0
35.167 0 0
35.2632 0 0
35.2632 0 0
35.3594 0 0
35.3594 0 0
35.4556 0 0
35.4556 0 0
35.5518 0 0
35.5518 0 0
35.6479 0 0
35.6479 0 0
35.7441 0 0
35.7441 0 0
35.8403 0 0
35.8403 0 0
35.9365 0 0
35.9365 0 0
36.0327 0 0
36.0327 0 0
36.1289 0 0
36.1289 0 0
36.2251 0 0
36.2251 0 0
36.3213 0 0
36.3213 0 0
36.4175 0 0
36.4175 0 0
36.5137 0 0
36.5137 0 0
36.6099 0 0
36.6099 0 0
36.7061 0 0
36.7061 0 0
36.8022 0 0
36.8022 0 0
36.8984 0 0
36.8984 0 0
36.9946 0 0
36.9946 0 0
37.0908 0 0
37.0908 0 0
37.187 0 0
37.187 0 0
37.2832 0 0
37.2832 0 0
37.3794 0 0
37.3794 0 0
37.4756 0 0
37.4756 0 0
37.5718 0 0
37.5718 0 0
37.668 0 0
37.668 0 0
37.7642 0 0
37.7642 0 0
37.8604 0 0
37.8604 0 0
37.9565 0 0
37.9565 0 0
38.0527 0 0
38.0527 0 0
38.1489 0 0
38.1489 0 0
38.2451 0 0
38.2451 0 0
38.3413 0 0
38.3413 0 0
38.4375 0 0
38.4375 0 0
38.5337 0 0
38.5337 0 0
38.6299 0 0
38.6299 0 0
38.7261 0 0
38.7261 0 0
38.8223 0 0
38.8223 0 0
38.9185 0 0
38.9185 0 0
39.0146 0 0
39.0146 0 0
39.1108 0 0
39.1108 0 0
39.207 0 0
39.207 0 0
39.3032 0 0
39.3032 0 0
39.3994 0 0
39.3994 0 0
39.4956 0 0
39.4956 0 0
39.5918 0 0
39.5918 0 0
39.688 0 0
39.688 0 0
39.7842 0 0
39.7842 0 0
39.8804 0 0
39.8804 0 0
39.9766 0 0
39.9766 0 0
40.0728 0 0
40.0728 0 0
40.1689 0 0
40.1689 0 0
40.2651 0 0
40.2651 0 0
40.3613 0 0
40.3613 0 0
40.4575 0 0
40.4575 0 0
40.5537 0 0
40.5537 0 0
40.6499 0 0
40.6499 0 0
40.7461 0 0
40.7461 0 0
40.8423 0 0
40.8423 0 0
40.9385 0 0
40.9385 0 0
41.0347 0 0
41.0347 0 0
41.1309 0 0
41.1309 0 0
41.2271 0 0
41.2271 0 0
[...]
POINT_DATA 2048
SCALARS solution_0 double 1
LOOKUP_TABLE default
-3.18006 -3.1926 -3.1926 -3.19744 -3.19744 -3.19608 -3.19608 -3.18959 -3.18959 -3.17878 -3.17878 -3.16425 -3.16425 -3.14649 -3.14649 -3.12588 -3.12588 -3.10273 -3.10273 -3.07731 -3.07731 -3.04984 -3.04984 -3.0205 -3.0205 -2.98945 -2.98945 -2.95686 -2.95686 -2.92283 -2.92283 -2.8875 -2.8875 -2.85097 -2.85097 -2.81333 -2.81333 -2.77468 -2.77468 -2.73511 -2.73511 -2.6947 -2.6947 -2.65351 -2.65351 -2.61163 -2.61163 -2.56912 -2.56912 -2.52605 -2.52605 -2.48248 -2.48248 -2.43846 -2.43846 -2.39407 -2.39407 -2.34935 -2.34935 -2.30436 -2.30436 -2.25915 -2.25915 -2.21376 -2.21376 -2.16826 -2.16826 -2.12268 -2.12268 -2.07706 -2.07706 -2.03146 -2.03146 -1.98591 -1.98591 -1.94046 -1.94046 -1.89514 -1.89514 -1.84998 -1.84998 -1.80503 -1.80503 -1.76032 -1.76032 -1.71589 -1.71589 -1.67175 -1.67175 -1.62795 -1.62795 -1.58452 -1.58452 -1.54147 -1.54147 -1.49884 -1.49884 -1.45664 -1.45664 -1.41492 -1.41492 -1.37367 -1.37367 -1.33293 -1.33293 -1.29272 -1.29272 -1.25305 -1.25305 -1.21395 -1.21395 -1.17542 -1.17542 -1.13748 -1.13748 -1.10014 -1.10014 -1.06343 -1.06343 -1.02734 -1.02734 -0.991889 -0.991889 -0.957086 -0.957086 -0.922939 -0.922939 -0.889454 -0.889454 -0.856638 -0.856638 -0.824495 -0.824495 -0.793029 -0.793029 -0.762244 -0.762244 -0.732142 -0.732142 -0.702724 -0.702724 -0.673992 -0.673992 -0.645944 -0.645944 -0.61858 -0.61858 -0.591897 -0.591897 -0.565895 -0.565895 -0.540569 -0.540569 -0.515916 -0.515916 -0.491932 -0.491932 -0.468611 -0.468611 -0.445948 -0.445948 -0.423937 -0.423937 -0.402572 -0.402572 -0.381845 -0.381845 -0.361749 -0.361749 -0.342276 -0.342276 -0.323418 -0.323418 -0.305166 -0.305166 -0.287511 -0.287511 -0.270444 -0.270444 -0.253955 -0.253955 -0.238035 -0.238035 -0.222673 -0.222673 -0.20786 -0.20786 -0.193584 -0.193584 -0.179834 -0.179834 -0.166601 -0.166601 -0.153873 -0.153873 -0.141639 -0.141639 -0.129888 -0.129888 -0.118609 -0.118609 -0.107791 -0.107791 -0.0974213 -0.0974213 -0.08749 -0.08749 -0.0779854 -0.0779854 -0.0688963 -0.0688963 -0.0602113 -0.0602113 -0.0519194 -0.0519194 -0.0440093 -0.0440093 -0.0364701 -0.0364701 -0.0292907 -0.0292907 -0.0224603 -0.0224603 -0.0159681 -0.0159681 -0.00980353 -0.00980353 -0.00395598 -0.00395598 0.00158491 0.00158491 0.00682937 0.00682937 0.0117875 0.0117875 0.0164692 0.0164692 0.0208844 0.0208844 0.0250424 0.0250424 0.0289529 0.0289529 0.032625 0.032625 0.0360678 0.0360678 0.0392901 0.0392901 0.0423007 0.0423007 0.045108 0.045108 0.0477203 0.0477203 0.0501457 0.0501457 0.052392 0.052392 0.0544671 0.0544671 0.0563782 0.0563782 0.0581329 0.0581329 0.059738 0.059738 0.0612005 0.0612005 0.0625272 0.0625272 0.0637244 0.0637244 0.0647984 0.0647984 0.0657554 0.0657554 0.0666012 0.0666012 0.0673415 0.0673415 0.0679819 0.0679819 0.0685276 0.0685276 0.0689838 0.0689838 0.0693555 0.0693555 0.0696473 0.0696473 0.069864 0.069864 0.0700099 0.0700099 0.0700893 0.0700893 0.0701063 0.0701063 0.0700648 0.0700648 0.0699685 0.0699685 0.0698211 0.0698211 0.069626 0.069626 0.0693865 0.0693865 0.0691058 0.0691058 0.0687869 0.0687869 0.0684327 0.0684327 0.0680459 0.0680459 0.0676291 0.0676291 0.0671849 0.0671849 0.0667156 0.0667156 0.0662235 0.0662235 0.0657106 0.0657106 0.0651791 0.0651791 0.0646309 0.0646309 0.0640678 0.0640678 0.0634914 0.0634914 0.0629035 0.0629035 0.0623055 0.0623055 0.061699 0.061699 0.0610852 0.0610852 0.0604654 0.0604654 0.0598409 0.0598409 0.0592128 0.0592128 0.058582 0.058582 0.0579497 0.0579497 0.0573167 0.0573167 0.0566838 0.0566838 0.0560519 0.0560519 0.0554216 0.0554216 0.0547938 0.0547938 0.0541689 0.0541689 0.0535476 0.0535476 0.0529305 0.0529305 0.0523179 0.0523179 0.0517103 0.0517103 0.0511082 0.0511082 0.0505119 0.0505119 0.0499217 0.0499217 0.0493379 0.0493379 0.0487609 0.0487609 0.0481907 0.0481907 0.0476277 0.0476277 0.0470719 0.0470719 0.0465237 0.0465237 0.0459829 0.0459829 0.0454499 0.0454499 0.0449247 0.0449247 0.0444072 0.0444072 0.0438977 0.0438977 0.0433961 0.0433961 0.0429023 0.0429023 0.0424166 0.0424166 0.0419387 0.0419387 0.0414687 0.0414687 0.0410066 0.0410066 0.0405523 0.0405523 0.0401058 0.0401058 0.0396669 0.0396669 0.0392357 0.0392357 0.038812 0.038812 0.0383958 0.0383958 0.037987 0.037987 0.0375854 0.0375854 0.037191 0.037191 0.0368036 0.0368036 0.0364232 0.0364232 0.0360497 0.0360497 0.0356829 0.0356829 0.0353227 0.0353227 0.034969 0.034969 0.0346217 0.0346217 0.0342807 0.0342807 0.0339458 0.0339458 0.033617 0.033617 0.0332941 0.0332941 0.0329769 0.0329769 0.0326654 0.0326654 0.0323595 0.0323595 0.032059 0.032059 0.0317638 0.0317638 0.0314738 0.0314738 0.031189 0.031189 0.030909 0.030909 0.030634 0.030634 0.0303636 0.0303636 0.030098 0.030098 0.0298368 0.0298368 0.0295801 0.0295801 0.0293277 0.0293277 0.0290796 0.0290796 0.0288355 0.0288355 0.0285955 0.0285955 0.0283594 0.0283594 0.0281272 0.0281272 0.0278987 0.0278987 0.0276739 0.0276739 0.0274526 0.0274526 0.0272348 0.0272348 0.0270204 0.0270204 0.0268094 0.0268094 0.0266016 0.0266016 0.0263969 0.0263969 0.0261954 0.0261954 0.0259969 0.0259969 0.0258013 0.0258013 0.0256086 0.0256086 0.0254187 0.0254187 0.0252316 0.0252316 0.0250471 0.0250471 0.0248653 0.0248653 0.024686 0.024686 0.0245092 0.0245092 0.0243349 0.0243349 0.024163 0.024163 0.0239934 0.0239934 0.0238261 0.0238261 0.023661 0.023661 0.0234981 0.0234981 0.0233374 0.0233374 0.0231787 0.0231787 0.0230221 0.0230221 0.0228675 0.0228675 0.0227149 0.0227149 0.0225642 0.0225642 0.0224153 0.0224153 0.0222684 0.0222684 0.0221232 0.0221232 0.0219798 0.0219798 0.0218381 0.0218381 0.0216981 0.0216981 0.0215598 0.0215598 0.0214231 0.0214231 0.021288 0.021288 0.0211546 0.0211546 0.0210226 0.0210226 0.0208922 0.0208922 0.0207632 0.0207632 0.0206357 0.0206357 0.0205097 0.0205097 0.020385 0.020385 0.0202618 0.0202618 0.0201399 0.0201399 0.0200193 0.0200193 0.0199 0.0199 0.0197821 0.0197821 0.0196654 0.0196654 0.01955 0.01955 0.0194358 0.0194358 0.0193228 0.0193228 0.019211 0.019211 0.0191003 0.0191003 0.0189908 0.0189908 0.0188825 0.0188825 0.0187753 0.0187753 0.0186691 0.0186691 0.0185641 0.0185641 0.0184601 0.0184601 0.0183572 0.0183572 0.0182553 0.0182553 0.0181545 0.0181545 0.0180546 0.0180546 0.0179558 0.0179558 0.0178579 0.0178579 0.017761 0.017761 0.017665 0.017665 0.01757 0.01757 0.0174759 0.0174759 0.0173828 0.0173828 0.0172905 0.0172905 0.0171991 0.0171991 0.0171086 0.0171086 0.017019 0.017019 0.0169302 0.0169302 0.0168423 0.0168423 0.0167552 0.0167552 0.016669 0.016669 0.0165835 0.0165835 0.0164989 0.0164989 0.016415 0.016415 0.0163319 0.0163319 0.0162496 0.0162496 0.0161681 0.0161681 0.0160873 0.0160873 0.0160073 0.0160073 0.015928 0.015928 0.0158494 0.0158494 0.0157715 0.0157715 0.0156944 0.0156944 0.0156179 0.0156179 0.0155422 0.0155422 0.0154671 0.0154671 0.0153926 0.0153926 0.0153189 0.0153189 0.0152458 0.0152458 0.0151733 0.0151733 0.0151015 0.0151015 0.0150303 0.0150303 0.0149597 0.0149597 0.0148897 0.0148897 0.0148203 0.0148203 0.0147515 0.0147515 0.0146832 0.0146832 0.0146155 0.0146155 0.0145484 0.0145484 0.0144819 0.0144819 0.0144158 0.0144158 0.0143503 0.0143503 0.0142853 0.0142853 0.0142208 0.0142208 0.0141568 0.0141568 0.0140933 0.0140933 0.0140303 0.0140303 0.0139677 0.0139677 0.0139055 0.0139055 0.0138439 0.0138439 0.0137826 0.0137826 0.0137217 0.0137217 0.0136613 0.0136613 0.0136012 0.0136012 0.0135415 0.0135415 0.0134822 0.0134822 0.0134233 0.0134233 0.0133647 0.0133647 0.0133064 0.0133064 0.0132485 0.0132485 0.0131909 0.0131909 0.0131336 0.0131336 0.0130766 0.0130766 0.0130199 0.0130199 0.0129634 0.0129634 0.0129073 0.0129073 0.0128514 0.0128514 0.0127958 0.0127958 0.0127405 0.0127405 0.0126854 0.0126854 0.0126305 0.0126305 0.012576 0.012576 0.0125216 0.0125216 0.0124676 0.0124676 0.0124138 0.0124138 0.0123603 0.0123603 0.0123071 0.0123071 0.0122541 0.0122541 0.0122015 0.0122015 0.0121492 0.0121492 0.0120972 0.0120972 0.0120456 0.0120456 0.0119944 0.0119944 0.0119435 0.0119435 0.0118931 0.0118931 0.0118431 0.0118431 0.0117936 0.0117936 0.0117447 0.0117447 0.0116962 0.0116962 0.0116484 0.0116484 0.0116012 0.0116012 0.0115547 0.0115547 0.0115088 0.0115088 0.0114638 0.0114638 0.0114195 0.0114195 0.0113761 0.0113761 0.0113336 0.0113336 0.011292 0.011292 0.0112515 0.0112515 0.011212 0.011212 0.0111736 0.0111736 0.0111364 0.0111364 0.0111004 0.0111004 0.0110656 0.0110656 0.0110322 0.0110322 0.0110002 0.0110002 0.0109696 0.0109696 0.0109404 0.0109404 0.0109128 0.0109128 0.0108868 0.0108868 0.0108623 0.0108623 0.0108395 0.0108395 0.0108184 0.0108184 0.010799 0.010799 0.0107813 0.0107813 0.0107654 0.0107654 0.0107513 0.0107513 0.010739 0.010739 0.0107285 0.0107285 0.0107199 0.0107199 0.010713 0.010713 0.010708 0.010708 0.0107048 0.0107048 0.0107034 0.0107034 0.0107037 0.0107037 0.0107059 0.0107059 0.0107097 0.0107097 0.0107152 0.0107152 0.0107223 0.0107223 0.0107311 0.0107311 0.0107413 0.0107413 0.0107531 0.0107531 0.0107662 0.0107662 0.0107807 0.0107807 0.0107965 0.0107965 0.0108134 0.0108134 0.0108315 0.0108315 0.0108505 0.0108505 0.0108705 0.0108705 0.0108913 0.0108913 0.0109128 0.0109128 0.010935 0.010935 0.0109576 0.0109576 0.0109807 0.0109807 0.011004 0.011004 0.0110276 0.0110276 0.0110512 0.0110512 0.0110748 0.0110748 0.0110983 0.0110983 0.0111215 0.0111215 0.0111443 0.0111443 0.0111666 0.0111666 0.0111884 0.0111884 0.0112094 0.0112094 0.0112297 0.0112297 0.0112491 0.0112491 0.0112674 0.0112674 0.0112847 0.0112847 0.0113008 0.0113008 0.0113156 0.0113156 0.0113291 0.0113291 0.0113411 0.0113411 0.0113517 0.0113517 0.0113606 0.0113606 0.011368 0.011368 0.0113736 0.0113736 0.0113775 0.0113775 0.0113797 0.0113797 0.01138 0.01138 0.0113785 0.0113785 0.0113752 0.0113752 0.0113699 0.0113699 0.0113628 0.0113628 0.0113538 0.0113538 0.0113428 0.0113428 0.01133 0.01133 0.0113154 0.0113154 0.0112989 0.0112989 0.0112806 0.0112806 0.0112605 0.0112605 0.0112387 0.0112387 0.0112151 0.0112151 0.01119 0.01119 0.0111632 0.0111632 0.011135 0.011135 0.0111052 0.0111052 0.0110741 0.0110741 0.0110417 0.0110417 0.011008 0.011008 0.0109731 0.0109731 0.0109372 0.0109372 0.0109003 0.0109003 0.0108625 0.0108625 0.0108238 0.0108238 0.0107844 0.0107844 0.0107444 0.0107444 0.0107038 0.0107038 0.0106627 0.0106627 0.0106213 0.0106213 0.0105796 0.0105796 0.0105377 0.0105377 0.0104956 0.0104956 0.0104536 0.0104536 0.0104116 0.0104116 0.0103697 0.0103697 0.0103281 0.0103281 0.0102867 0.0102867 0.0102457 0.0102457 0.0102052 0.0102052 0.0101652 0.0101652 0.0101257 0.0101257 0.0100868 0.0100868 0.0100487 0.0100487 0.0100113 0.0100113 0.00997468 0.00997468 0.00993891 0.00993891 0.00990402 0.00990402 0.00987006 0.00987006 0.00983705 0.00983705 0.00980503 0.00980503 0.00977404 0.00977404 0.00974409 0.00974409 0.00971521 0.00971521 0.00968741 0.00968741 0.00966071 0.00966071 0.00963512 0.00963512 0.00961065 0.00961065 0.00958731 0.00958731 0.0095651 0.0095651 0.00954402 0.00954402 0.00952407 0.00952407 0.00950525 0.00950525 0.00948754 0.00948754 0.00947094 0.00947094 0.00945544 0.00945544 0.00944103 0.00944103 0.0094277 0.0094277 0.00941542 0.00941542 0.00940419 0.00940419 0.00939398 0.00939398 0.00938478 0.00938478 0.00937657 0.00937657 0.00936934 0.00936934 0.00936305 0.00936305 0.00935769 0.00935769 0.00935324 0.00935324 0.00934967 0.00934967 0.00934697 0.00934697 0.00934512 0.00934512 0.00934408 0.00934408 0.00934385 0.00934385 0.0093444 0.0093444 0.00934571 0.00934571 0.00934776 0.00934776 0.00935053 0.00935053 0.009354 0.009354 0.00935815 0.00935815 0.00936296 0.00936296 0.00936842 0.00936842 0.0093745 0.0093745 0.0093812 0.0093812 0.00938849 0.00938849 0.00939636 0.00939636 0.0094048 0.0094048 0.00941379 0.00941379 0.00942331 0.00942331 0.00943336 0.00943336 0.00944393 0.00944393 0.00945499 0.00945499 0.00946655 0.00946655 0.00947858 0.00947858 0.00949109 0.00949109 0.00950406 0.00950406 0.00951748 0.00951748 0.00953136 0.00953136 0.00954567 0.00954567 0.00956041 0.00956041 0.00957558 0.00957558 0.00959117 0.00959117 0.00960718 0.00960718 0.00962361 0.00962361 0.00964044 0.00964044 0.00965767 0.00965767 0.00967531 0.00967531 0.00969334 0.00969334 0.00971178 0.00971178 0.0097306 0.0097306 0.00974982 0.00974982 0.00976943 0.00976943 0.00978943 0.00978943 0.00980983 0.00980983 0.00983061 0.00983061 0.00985178 0.00985178 0.00987334 0.00987334 0.00989528 0.00989528 0.00991762 0.00991762 0.00994035 0.00994035 0.00996348 0.00996348 0.00998699 0.00998699 0.0100109 0.0100109 0.0100352 0.0100352 0.0100599 0.0100599 0.010085 0.010085 0.0101105 0.0101105 0.0101364 0.0101364 0.0101628 0.0101628 0.0101895 0.0101895 0.0102166 0.0102166 0.0102442 0.0102442 0.0102722 0.0102722 0.0103005 0.0103005 0.0103294 0.0103294 0.0103586 0.0103586 0.0103883 0.0103883 0.0104184 0.0104184 0.0104489 0.0104489 0.0104799 0.0104799 0.0105113 0.0105113 0.0105432 0.0105432 0.0105755 0.0105755 0.0106083 0.0106083 0.0106416 0.0106416 0.0106753 0.0106753 0.0107095 0.0107095 0.0107441 0.0107441 0.0107793 0.0107793 0.0108149 0.0108149 0.010851 0.010851 0.0108876 0.0108876 0.0109247 0.0109247 0.0109622 0.0109622 0.0110003 0.0110003 0.011039 0.011039 0.0110781 0.0110781 0.0111177 0.0111177 0.0111579 0.0111579 0.0111986 0.0111986 0.0112399 0.0112399 0.0112817 0.0112817 0.011324 0.011324 0.0113669 0.0113669 0.0114104 0.0114104 0.0114545 0.0114545 0.0114991 0.0114991 0.0115443 0.0115443 0.0115901 0.0115901 0.0116364 0.0116364 0.0116834 0.0116834 0.011731 0.011731 0.0117793 0.0117793 0.0118281 0.0118281 0.0118776 0.0118776 0.0119277 0.0119277 0.0119784 0.0119784 0.0120299 0.0120299 0.0120819 0.0120819 0.0121347 0.0121347 0.0121881 0.0121881 0.0122423 0.0122423 0.0122971 0.0122971 0.0123526 0.0123526 0.0124089 0.0124089 0.0124658 0.0124658 0.0125236 0.0125236 0.012582 0.012582 0.0126412 0.0126412 0.0127012 0.0127012 0.012762 0.012762 0.0128235 0.0128235 0.0128858 0.0128858 0.012949 0.012949 0.013013 0.013013 0.0130778 0.0130778 0.0131434 0.0131434 0.01321 0.01321 0.0132773 0.0132773 0.0133456 0.0133456 0.0134148 0.0134148 0.0134849 0.0134849 0.0135559 0.0135559 0.0136278 0.0136278 0.0137007 0.0137007 0.0137746 0.0137746 0.0138495 0.0138495 0.0139253 0.0139253 0.0140022 0.0140022 0.0140802 0.0140802 0.0141592 0.0141592 0.0142392 0.0142392 0.0143204 0.0143204 0.0144026 0.0144026 0.014486 0.014486 0.0145706 0.0145706 0.0146563 0.0146563 0.0147432 0.0147432 0.0148313 0.0148313 0.0149207 0.0149207 0.0150114 0.0150114 0.0151033 0.0151033 0.0151965 0.0151965 0.0152911 0.0152911 0.0153871 0.0153871 0.0154844 0.0154844 0.0155832 0.0155832 0.0156834 0.0156834 0.0157852 0.0157852 0.0158884 0.0158884 0.0159932 0.0159932 0.0160996 0.0160996 0.0162076 0.0162076 0.0163172 0.0163172 0.0164285 0.0164285 0.0165416 0.0165416 0.0166565 0.0166565 0.0167731 0.0167731 0.0168916 0.0168916 0.0170121 0.0170121 0.0171344 0.0171344 0.0172588 0.0172588 0.0173852 0.0173852 0.0175137 0.0175137 0.0176443 0.0176443 0.0177772 0.0177772 0.0179123 0.0179123 0.0180497 0.0180497 0.0181895 0.0181895 0.0183317 0.0183317 0.0184765 0.0184765 0.0186238 0.0186238 0.0187737 0.0187737 0.0189263 0.0189263 0.0190818 0.0190818 0.01924 0.01924 0.0194012 0.0194012 0.0195654 0.0195654 0.0197327 0.0197327 0.0199032 0.0199032 0.020077 0.020077 0.0202541 0.0202541 0.0204346 0.0204346 0.0206188 0.0206188 0.0208065 0.0208065 0.020998 0.020998 0.0211934 0.0211934 0.0213927 0.0213927 0.0215961 0.0215961 0.0218037 0.0218037 0.0220156 0.0220156 0.022232 0.022232 0.0224528 0.0224528 0.0226784 0.0226784 0.0229088 0.0229088 0.0231441 0.0231441 0.0233846 0.0233846 0.0236302 0.0236302 0.0238812 0.0238812 0.0241378 0.0241378 0.0244 0.0244 0.024668 0.024668 0.0249421 0.0249421 0.0252222 0.0252222 0.0255087 0.0255087 0.0258017 0.0258017 0.0261013 0.0261013 0.0264078 0.0264078 0.0267212 0.0267212 0.0270419 0.0270419 0.0273699 0.0273699 0.0277055 0.0277055 0.0280488 0.0280488 0.0284 0.0284 0.0287594 0.0287594 0.0291271 0.0291271 0.0295033 0.0295033 0.0298882 0.0298882 0.030282 0.030282 0.030685 0.030685 0.0310973 0.0310973 0.0315191 0.0315191 0.0319506 0.0319506 0.0323921 0.0323921 0.0328437 0.0328437 0.0333056 0.0333056 0.0337781 0.0337781 0.0342613 0.0342613 0.0347555 0.0347555 0.0352608 0.0352608 0.0357774 0.0357774 0.0363055 0.0363055 0.0368453 0.0368453 0.037397 0.037397 0.0379608 0.0379608 0.0385368 0.0385368 0.0391251 0.0391251 0.0397261 0.0397261 0.0403397 0.0403397 0.0409662 0.0409662 0.0416057 0.0416057 0.0422583 0.0422583 0.0429241 0.0429241 0.0436032 0.0436032 0.0442957 0.0442957 0.0450017 0.0450017 0.0457213 0.0457213 0.0464545 0.0464545 0.0472013 0.0472013 0.0479618 0.0479618 0.0487359 0.0487359 0.0495237 0.0495237 0.0503251 0.0503251 0.0511401 0.0511401 0.0519685 0.0519685 0.0528103 0.0528103 0.0536654 0.0536654 0.0545336 0.0545336 0.0554147 0.0554147 0.0563086 0.0563086 0.0572149 0.0572149 0.0581336 0.0581336 0.0590642 0.0590642 0.0600065 0.0600065 0.0609601 0.0609601 0.0619246 0.0619246 0.0628997 0.0628997 0.0638849 0.0638849 0.0648796 0.0648796 0.0658835 0.0658835 0.0668959 0.0668959 0.0679162 0.0679162 0.0689439 0.0689439 0.0699782 0.0699782 0.0710183 0.0710183 0.0720637 0.0720637 0.0731134 0.0731134 0.0741666 0.0741666 0.0752224 0.0752224 0.07628 0.07628 0.0773382 0.0773382 0.0783962 0.0783962 0.0794527 0.0794527 0.0805067 0.0805067 0.0815571 0.0815571 0.0826026 0.0826026 0.0836419 0.0836419 0.0846738 0.0846738 0.0856968 0.0856968 0.0867096 0.0867096 0.0877107 0.0877107 0.0886986 0.0886986 0.0896718 0.0896718 0.0906287 0.0906287 0.0915675 0.0915675 0.0924867 0.0924867 0.0933844 0.0933844 0.0942589 0.0942589 0.0951084 0.0951084 0.095931 0.095931 0.0967247 0.0967247 0.0974877 0.0974877 0.0982179 0.0982179 0.0989134 0.0989134 0.0995719 0.0995719 0.100191 0.100191 0.10077 0.10077 0.101305 0.101305 0.101795 0.101795 0.102237 0.102237 0.102629 0.102629 0.102969 0.102969 0.103254 0.103254 0.103483 0.103483 0.103652 0.103652 0.10376 0.10376 0.103805 0.103805 0.103783 0.103783 0.103692 0.103692 0.103531 0.103531 0.103297 0.103297 0.102987 0.102987 0.102599 0.102599 0.102131 0.102131 0.101581 0.101581 0.100946 0.100946 0.100225 0.100225 0.0994139 0.0994139 0.0985118 0.0985118 0.0975163 0.0975163 0.0964253 0.0964253 0.0952368 0.0952368 0.0939488 0.0939488 0.0925594 0.0925594 0.0910667 0.0910667 0.0894689 0.0894689 0.0877643 0.0877643 0.0859512 0.0859512 0.0840281 0.0840281 0.0819933 0.0819933 0.0798456 0.0798456 0.0775836 0.0775836 0.075206 0.075206 0.0727118 0.0727118 0.0700998 0.0700998 0.0673693 0.0673693 0.0645193 0.0645193 0.0615492 0.0615492 0.0584584 0.0584584 0.0552464 0.0552464 0.051913 0.051913 0.0484578 0.0484578 0.0448808 0.0448808 0.0411821 0.0411821 0.0373618 0.0373618 0.0334204 0.0334204 0.0293582 0.0293582 0.0251759 0.0251759 0.0208742 0.0208742 0.0164541 0.0164541 0.0119166 0.0119166 0.00726296 0.00726296 0.00249447 0.00249447 -0.00238732 -0.00238732 -0.00738075 -0.00738075 -0.012484 -0.012484 -0.0176951 -0.0176951 -0.0230119 -0.0230119 -0.0284322 -0.0284322 -0.0339534 -0.0339534 -0.0395731 -0.0395731 -0.0452885 -0.0452885 -0.0510967 -0.0510967 -0.0569946 -0.0569946 -0.0629792 -0.0629792 -0.069047 -0.069047 -0.0751946 -0.0751946 -0.0814185 -0.0814185 -0.0877148 -0.0877148 -0.0940797 -0.0940797 -0.100509 -0.100509 -0.106999 -0.106999 -0.113545 -0.113545 -0.120143 -0.120143 -0.126789 -0.126789 -0.133477 -0.133477 -0.140204 -0.140204 -0.146963 -0.146963 -0.153752 -0.153752 -0.160563 -0.160563 -0.167394 -0.167394 -0.174237 -0.174237 -0.181089 -0.181089 -0.187944 -0.187944 -0.194797 -0.194797 -0.201641 -0.201641 -0.208473 -0.208473 -0.215286 -0.215286 -0.222075 -0.222075 -0.228835 -0.228835 -0.23556 -0.23556 -0.242245 -0.242245 -0.248883 -0.248883 -0.25547 -0.25547 -0.262001 -0.262001 -0.268469 -0.268469 -0.274869 -0.274869 -0.281197 -0.281197 -0.287445 -0.287445 -0.293611 -0.293611 -0.299687 -0.299687 -0.305669 -0.305669 -0.311553 -0.311553 -0.317332 -0.317332 -0.323002 -0.323002 -0.328558 -0.328558 -0.333996 -0.333996 -0.339311 -0.339311 -0.344498 -0.344498 -0.349554 -0.349554 -0.354473 -0.354473 -0.359252 -0.359252 -0.363887 -0.363887 -0.368373 -0.368373 -0.372709 -0.372709 -0.376889 -0.376889 -0.38091 -0.38091 -0.38477 -0.38477 -0.388465 -0.388465 -0.391992 -0.391992 -0.39534