# vtk DataFile Version 3.0
#This file was generated by the deal.II library on 2020/9/1 at 14:40:26
ASCII
DATASET UNSTRUCTURED_GRID

POINTS 2048 double
1.5 0 0
1.59619 0 0
1.59619 0 0
1.69238 0 0
1.69238 0 0
1.78857 0 0
1.78857 0 0
1.88477 0 0
1.88477 0 0
1.98096 0 0
1.98096 0 0
2.07715 0 0
2.07715 0 0
2.17334 0 0
2.17334 0 0
2.26953 0 0
2.26953 0 0
2.36572 0 0
2.36572 0 0
2.46191 0 0
2.46191 0 0
2.55811 0 0
2.55811 0 0
2.6543 0 0
2.6543 0 0
2.75049 0 0
2.75049 0 0
2.84668 0 0
2.84668 0 0
2.94287 0 0
2.94287 0 0
3.03906 0 0
3.03906 0 0
3.13525 0 0
3.13525 0 0
3.23145 0 0
3.23145 0 0
3.32764 0 0
3.32764 0 0
3.42383 0 0
3.42383 0 0
3.52002 0 0
3.52002 0 0
3.61621 0 0
3.61621 0 0
3.7124 0 0
3.7124 0 0
3.80859 0 0
3.80859 0 0
3.90479 0 0
3.90479 0 0
4.00098 0 0
4.00098 0 0
4.09717 0 0
4.09717 0 0
4.19336 0 0
4.19336 0 0
4.28955 0 0
4.28955 0 0
4.38574 0 0
4.38574 0 0
4.48193 0 0
4.48193 0 0
4.57812 0 0
4.57812 0 0
4.67432 0 0
4.67432 0 0
4.77051 0 0
4.77051 0 0
4.8667 0 0
4.8667 0 0
4.96289 0 0
4.96289 0 0
5.05908 0 0
5.05908 0 0
5.15527 0 0
5.15527 0 0
5.25146 0 0
5.25146 0 0
5.34766 0 0
5.34766 0 0
5.44385 0 0
5.44385 0 0
5.54004 0 0
5.54004 0 0
5.63623 0 0
5.63623 0 0
5.73242 0 0
5.73242 0 0
5.82861 0 0
5.82861 0 0
5.9248 0 0
5.9248 0 0
6.021 0 0
6.021 0 0
6.11719 0 0
6.11719 0 0
6.21338 0 0
6.21338 0 0
6.30957 0 0
6.30957 0 0
6.40576 0 0
6.40576 0 0
6.50195 0 0
6.50195 0 0
6.59814 0 0
6.59814 0 0
6.69434 0 0
6.69434 0 0
6.79053 0 0
6.79053 0 0
6.88672 0 0
6.88672 0 0
6.98291 0 0
6.98291 0 0
7.0791 0 0
7.0791 0 0
7.17529 0 0
7.17529 0 0
7.27148 0 0
7.27148 0 0
7.36768 0 0
7.36768 0 0
7.46387 0 0
7.46387 0 0
7.56006 0 0
7.56006 0 0
7.65625 0 0
7.65625 0 0
7.75244 0 0
7.75244 0 0
7.84863 0 0
7.84863 0 0
7.94482 0 0
7.94482 0 0
8.04102 0 0
8.04102 0 0
8.13721 0 0
8.13721 0 0
8.2334 0 0
8.2334 0 0
8.32959 0 0
8.32959 0 0
8.42578 0 0
8.42578 0 0
8.52197 0 0
8.52197 0 0
8.61816 0 0
8.61816 0 0
8.71436 0 0
8.71436 0 0
8.81055 0 0
8.81055 0 0
8.90674 0 0
8.90674 0 0
9.00293 0 0
9.00293 0 0
9.09912 0 0
9.09912 0 0
9.19531 0 0
9.19531 0 0
9.2915 0 0
9.2915 0 0
9.3877 0 0
9.3877 0 0
9.48389 0 0
9.48389 0 0
9.58008 0 0
9.58008 0 0
9.67627 0 0
9.67627 0 0
9.77246 0 0
9.77246 0 0
9.86865 0 0
9.86865 0 0
9.96484 0 0
9.96484 0 0
10.061 0 0
10.061 0 0
10.1572 0 0
10.1572 0 0
10.2534 0 0
10.2534 0 0
10.3496 0 0
10.3496 0 0
10.4458 0 0
10.4458 0 0
10.542 0 0
10.542 0 0
10.6382 0 0
10.6382 0 0
10.7344 0 0
10.7344 0 0
10.8306 0 0
10.8306 0 0
10.9268 0 0
10.9268 0 0
11.0229 0 0
11.0229 0 0
11.1191 0 0
11.1191 0 0
11.2153 0 0
11.2153 0 0
11.3115 0 0
11.3115 0 0
11.4077 0 0
11.4077 0 0
11.5039 0 0
11.5039 0 0
11.6001 0 0
11.6001 0 0
11.6963 0 0
11.6963 0 0
11.7925 0 0
11.7925 0 0
11.8887 0 0
11.8887 0 0
11.9849 0 0
11.9849 0 0
12.0811 0 0
12.0811 0 0
12.1772 0 0
12.1772 0 0
12.2734 0 0
12.2734 0 0
12.3696 0 0
12.3696 0 0
12.4658 0 0
12.4658 0 0
12.562 0 0
12.562 0 0
12.6582 0 0
12.6582 0 0
12.7544 0 0
12.7544 0 0
12.8506 0 0
12.8506 0 0
12.9468 0 0
12.9468 0 0
13.043 0 0
13.043 0 0
13.1392 0 0
13.1392 0 0
13.2354 0 0
13.2354 0 0
13.3315 0 0
13.3315 0 0
13.4277 0 0
13.4277 0 0
13.5239 0 0
13.5239 0 0
13.6201 0 0
13.6201 0 0
13.7163 0 0
13.7163 0 0
13.8125 0 0
13.8125 0 0
13.9087 0 0
13.9087 0 0
14.0049 0 0
14.0049 0 0
14.1011 0 0
14.1011 0 0
14.1973 0 0
14.1973 0 0
14.2935 0 0
14.2935 0 0
14.3896 0 0
14.3896 0 0
14.4858 0 0
14.4858 0 0
14.582 0 0
14.582 0 0
14.6782 0 0
14.6782 0 0
14.7744 0 0
14.7744 0 0
14.8706 0 0
14.8706 0 0
14.9668 0 0
14.9668 0 0
15.063 0 0
15.063 0 0
15.1592 0 0
15.1592 0 0
15.2554 0 0
15.2554 0 0
15.3516 0 0
15.3516 0 0
15.4478 0 0
15.4478 0 0
15.5439 0 0
15.5439 0 0
15.6401 0 0
15.6401 0 0
15.7363 0 0
15.7363 0 0
15.8325 0 0
15.8325 0 0
15.9287 0 0
15.9287 0 0
16.0249 0 0
16.0249 0 0
16.1211 0 0
16.1211 0 0
16.2173 0 0
16.2173 0 0
16.3135 0 0
16.3135 0 0
16.4097 0 0
16.4097 0 0
16.5059 0 0
16.5059 0 0
16.6021 0 0
16.6021 0 0
16.6982 0 0
16.6982 0 0
16.7944 0 0
16.7944 0 0
16.8906 0 0
16.8906 0 0
16.9868 0 0
16.9868 0 0
17.083 0 0
17.083 0 0
17.1792 0 0
17.1792 0 0
17.2754 0 0
17.2754 0 0
17.3716 0 0
17.3716 0 0
17.4678 0 0
17.4678 0 0
17.564 0 0
17.564 0 0
17.6602 0 0
17.6602 0 0
17.7563 0 0
17.7563 0 0
17.8525 0 0
17.8525 0 0
17.9487 0 0
17.9487 0 0
18.0449 0 0
18.0449 0 0
18.1411 0 0
18.1411 0 0
18.2373 0 0
18.2373 0 0
18.3335 0 0
18.3335 0 0
18.4297 0 0
18.4297 0 0
18.5259 0 0
18.5259 0 0
18.6221 0 0
18.6221 0 0
18.7183 0 0
18.7183 0 0
18.8145 0 0
18.8145 0 0
18.9106 0 0
18.9106 0 0
19.0068 0 0
19.0068 0 0
19.103 0 0
19.103 0 0
19.1992 0 0
19.1992 0 0
19.2954 0 0
19.2954 0 0
19.3916 0 0
19.3916 0 0
19.4878 0 0
19.4878 0 0
19.584 0 0
19.584 0 0
19.6802 0 0
19.6802 0 0
19.7764 0 0
19.7764 0 0
19.8726 0 0
19.8726 0 0
19.9688 0 0
19.9688 0 0
20.0649 0 0
20.0649 0 0
20.1611 0 0
20.1611 0 0
20.2573 0 0
20.2573 0 0
20.3535 0 0
20.3535 0 0
20.4497 0 0
20.4497 0 0
20.5459 0 0
20.5459 0 0
20.6421 0 0
20.6421 0 0
20.7383 0 0
20.7383 0 0
20.8345 0 0
20.8345 0 0
20.9307 0 0
20.9307 0 0
21.0269 0 0
21.0269 0 0
21.123 0 0
21.123 0 0
21.2192 0 0
21.2192 0 0
21.3154 0 0
21.3154 0 0
21.4116 0 0
21.4116 0 0
21.5078 0 0
21.5078 0 0
21.604 0 0
21.604 0 0
21.7002 0 0
21.7002 0 0
21.7964 0 0
21.7964 0 0
21.8926 0 0
21.8926 0 0
21.9888 0 0
21.9888 0 0
22.085 0 0
22.085 0 0
22.1812 0 0
22.1812 0 0
22.2773 0 0
22.2773 0 0
22.3735 0 0
22.3735 0 0
22.4697 0 0
22.4697 0 0
22.5659 0 0
22.5659 0 0
22.6621 0 0
22.6621 0 0
22.7583 0 0
22.7583 0 0
22.8545 0 0
22.8545 0 0
22.9507 0 0
22.9507 0 0
23.0469 0 0
23.0469 0 0
23.1431 0 0
23.1431 0 0
23.2393 0 0
23.2393 0 0
23.3354 0 0
23.3354 0 0
23.4316 0 0
23.4316 0 0
23.5278 0 0
23.5278 0 0
23.624 0 0
23.624 0 0
23.7202 0 0
23.7202 0 0
23.8164 0 0
23.8164 0 0
23.9126 0 0
23.9126 0 0
24.0088 0 0
24.0088 0 0
24.105 0 0
24.105 0 0
24.2012 0 0
24.2012 0 0
24.2974 0 0
24.2974 0 0
24.3936 0 0
24.3936 0 0
24.4897 0 0
24.4897 0 0
24.5859 0 0
24.5859 0 0
24.6821 0 0
24.6821 0 0
24.7783 0 0
24.7783 0 0
24.8745 0 0
24.8745 0 0
24.9707 0 0
24.9707 0 0
25.0669 0 0
25.0669 0 0
25.1631 0 0
25.1631 0 0
25.2593 0 0
25.2593 0 0
25.3555 0 0
25.3555 0 0
25.4517 0 0
25.4517 0 0
25.5479 0 0
25.5479 0 0
25.644 0 0
25.644 0 0
25.7402 0 0
25.7402 0 0
25.8364 0 0
25.8364 0 0
25.9326 0 0
25.9326 0 0
26.0288 0 0
26.0288 0 0
26.125 0 0
26.125 0 0
26.2212 0 0
26.2212 0 0
26.3174 0 0
26.3174 0 0
26.4136 0 0
26.4136 0 0
26.5098 0 0
26.5098 0 0
26.606 0 0
26.606 0 0
26.7021 0 0
26.7021 0 0
26.7983 0 0
26.7983 0 0
26.8945 0 0
26.8945 0 0
26.9907 0 0
26.9907 0 0
27.0869 0 0
27.0869 0 0
27.1831 0 0
27.1831 0 0
27.2793 0 0
27.2793 0 0
27.3755 0 0
27.3755 0 0
27.4717 0 0
27.4717 0 0
27.5679 0 0
27.5679 0 0
27.6641 0 0
27.6641 0 0
27.7603 0 0
27.7603 0 0
27.8564 0 0
27.8564 0 0
27.9526 0 0
27.9526 0 0
28.0488 0 0
28.0488 0 0
28.145 0 0
28.145 0 0
28.2412 0 0
28.2412 0 0
28.3374 0 0
28.3374 0 0
28.4336 0 0
28.4336 0 0
28.5298 0 0
28.5298 0 0
28.626 0 0
28.626 0 0
28.7222 0 0
28.7222 0 0
28.8184 0 0
28.8184 0 0
28.9146 0 0
28.9146 0 0
29.0107 0 0
29.0107 0 0
29.1069 0 0
29.1069 0 0
29.2031 0 0
29.2031 0 0
29.2993 0 0
29.2993 0 0
29.3955 0 0
29.3955 0 0
29.4917 0 0
29.4917 0 0
29.5879 0 0
29.5879 0 0
29.6841 0 0
29.6841 0 0
29.7803 0 0
29.7803 0 0
29.8765 0 0
29.8765 0 0
29.9727 0 0
29.9727 0 0
30.0688 0 0
30.0688 0 0
30.165 0 0
30.165 0 0
30.2612 0 0
30.2612 0 0
30.3574 0 0
30.3574 0 0
30.4536 0 0
30.4536 0 0
30.5498 0 0
30.5498 0 0
30.646 0 0
30.646 0 0
30.7422 0 0
30.7422 0 0
30.8384 0 0
30.8384 0 0
30.9346 0 0
30.9346 0 0
31.0308 0 0
31.0308 0 0
31.127 0 0
31.127 0 0
31.2231 0 0
31.2231 0 0
31.3193 0 0
31.3193 0 0
31.4155 0 0
31.4155 0 0
31.5117 0 0
31.5117 0 0
31.6079 0 0
31.6079 0 0
31.7041 0 0
31.7041 0 0
31.8003 0 0
31.8003 0 0
31.8965 0 0
31.8965 0 0
31.9927 0 0
31.9927 0 0
32.0889 0 0
32.0889 0 0
32.1851 0 0
32.1851 0 0
32.2812 0 0
32.2812 0 0
32.3774 0 0
32.3774 0 0
32.4736 0 0
32.4736 0 0
32.5698 0 0
32.5698 0 0
32.666 0 0
32.666 0 0
32.7622 0 0
32.7622 0 0
32.8584 0 0
32.8584 0 0
32.9546 0 0
32.9546 0 0
33.0508 0 0
33.0508 0 0
33.147 0 0
33.147 0 0
33.2432 0 0
33.2432 0 0
33.3394 0 0
33.3394 0 0
33.4355 0 0
33.4355 0 0
33.5317 0 0
33.5317 0 0
33.6279 0 0
33.6279 0 0
33.7241 0 0
33.7241 0 0
33.8203 0 0
33.8203 0 0
33.9165 0 0
33.9165 0 0
34.0127 0 0
34.0127 0 0
34.1089 0 0
34.1089 0 0
34.2051 0 0
34.2051 0 0
34.3013 0 0
34.3013 0 0
34.3975 0 0
34.3975 0 0
34.4937 0 0
34.4937 0 0
34.5898 0 0
34.5898 0 0
34.686 0 0
34.686 0 0
34.7822 0 0
34.7822 0 0
34.8784 0 0
34.8784 0 0
34.9746 0 0
34.9746 0 0
35.0708 0 0
35.0708 0 0
35.167 0 0
35.167 0 0
35.2632 0 0
35.2632 0 0
35.3594 0 0
35.3594 0 0
35.4556 0 0
35.4556 0 0
35.5518 0 0
35.5518 0 0
35.6479 0 0
35.6479 0 0
35.7441 0 0
35.7441 0 0
35.8403 0 0
35.8403 0 0
35.9365 0 0
35.9365 0 0
36.0327 0 0
36.0327 0 0
36.1289 0 0
36.1289 0 0
36.2251 0 0
36.2251 0 0
36.3213 0 0
36.3213 0 0
36.4175 0 0
36.4175 0 0
36.5137 0 0
36.5137 0 0
36.6099 0 0
36.6099 0 0
36.7061 0 0
36.7061 0 0
36.8022 0 0
36.8022 0 0
36.8984 0 0
36.8984 0 0
36.9946 0 0
36.9946 0 0
37.0908 0 0
37.0908 0 0
37.187 0 0
37.187 0 0
37.2832 0 0
37.2832 0 0
37.3794 0 0
37.3794 0 0
37.4756 0 0
37.4756 0 0
37.5718 0 0
37.5718 0 0
37.668 0 0
37.668 0 0
37.7642 0 0
37.7642 0 0
37.8604 0 0
37.8604 0 0
37.9565 0 0
37.9565 0 0
38.0527 0 0
38.0527 0 0
38.1489 0 0
38.1489 0 0
38.2451 0 0
38.2451 0 0
38.3413 0 0
38.3413 0 0
38.4375 0 0
38.4375 0 0
38.5337 0 0
38.5337 0 0
38.6299 0 0
38.6299 0 0
38.7261 0 0
38.7261 0 0
38.8223 0 0
38.8223 0 0
38.9185 0 0
38.9185 0 0
39.0146 0 0
39.0146 0 0
39.1108 0 0
39.1108 0 0
39.207 0 0
39.207 0 0
39.3032 0 0
39.3032 0 0
39.3994 0 0
39.3994 0 0
39.4956 0 0
39.4956 0 0
39.5918 0 0
39.5918 0 0
39.688 0 0
39.688 0 0
39.7842 0 0
39.7842 0 0
39.8804 0 0
39.8804 0 0
39.9766 0 0
39.9766 0 0
40.0728 0 0
40.0728 0 0
40.1689 0 0
40.1689 0 0
40.2651 0 0
40.2651 0 0
40.3613 0 0
40.3613 0 0
40.4575 0 0
40.4575 0 0
40.5537 0 0
40.5537 0 0
40.6499 0 0
40.6499 0 0
40.7461 0 0
40.7461 0 0
40.8423 0 0
40.8423 0 0
40.9385 0 0
40.9385 0 0
41.0347 0 0
41.0347 0 0
41.1309 0 0
41.1309 0 0
41.2271 0 0
41.2271 0 0
[...]
POINT_DATA 2048
SCALARS solution_0 double 1
LOOKUP_TABLE default
0.0749227 0.0749762 0.0749762 0.0749428 0.0749428 0.0748459 0.0748459 0.0747023 0.0747023 0.074524 0.074524 0.0743197 0.0743197 0.0740962 0.0740962 0.0738583 0.0738583 0.0736099 0.0736099 0.0733539 0.0733539 0.0730927 0.0730927 0.0728281 0.0728281 0.0725615 0.0725615 0.072294 0.072294 0.0720266 0.0720266 0.0717599 0.0717599 0.0714946 0.0714946 0.071231 0.071231 0.0709696 0.0709696 0.0707107 0.0707107 0.0704543 0.0704543 0.0702008 0.0702008 0.0699503 0.0699503 0.0697028 0.0697028 0.0694584 0.0694584 0.0692172 0.0692172 0.0689792 0.0689792 0.0687444 0.0687444 0.0685128 0.0685128 0.0682844 0.0682844 0.0680591 0.0680591 0.067837 0.067837 0.067618 0.067618 0.0674021 0.0674021 0.0671892 0.0671892 0.0669793 0.0669793 0.0667724 0.0667724 0.0665683 0.0665683 0.0663671 0.0663671 0.0661687 0.0661687 0.065973 0.065973 0.0657801 0.0657801 0.0655897 0.0655897 0.065402 0.065402 0.0652169 0.0652169 0.0650342 0.0650342 0.064854 0.064854 0.0646762 0.0646762 0.0645007 0.0645007 0.0643275 0.0643275 0.0641567 0.0641567 0.063988 0.063988 0.0638215 0.0638215 0.0636571 0.0636571 0.0634948 0.0634948 0.0633346 0.0633346 0.0631763 0.0631763 0.0630201 0.0630201 0.0628657 0.0628657 0.0627133 0.0627133 0.0625627 0.0625627 0.0624139 0.0624139 0.0622669 0.0622669 0.0621216 0.0621216 0.061978 0.061978 0.0618362 0.0618362 0.0616959 0.0616959 0.0615573 0.0615573 0.0614203 0.0614203 0.0612848 0.0612848 0.0611508 0.0611508 0.0610183 0.0610183 0.0608873 0.0608873 0.0607577 0.0607577 0.0606296 0.0606296 0.0605028 0.0605028 0.0603774 0.0603774 0.0602533 0.0602533 0.0601305 0.0601305 0.060009 0.060009 0.0598888 0.0598888 0.0597698 0.0597698 0.059652 0.059652 0.0595355 0.0595355 0.05942 0.05942 0.0593058 0.0593058 0.0591927 0.0591927 0.0590807 0.0590807 0.0589697 0.0589697 0.0588599 0.0588599 0.0587511 0.0587511 0.0586433 0.0586433 0.0585366 0.0585366 0.0584309 0.0584309 0.0583261 0.0583261 0.0582223 0.0582223 0.0581194 0.0581194 0.0580175 0.0580175 0.0579165 0.0579165 0.0578164 0.0578164 0.0577172 0.0577172 0.0576189 0.0576189 0.0575214 0.0575214 0.0574248 0.0574248 0.057329 0.057329 0.057234 0.057234 0.0571397 0.0571397 0.0570463 0.0570463 0.0569537 0.0569537 0.0568618 0.0568618 0.0567707 0.0567707 0.0566803 0.0566803 0.0565906 0.0565906 0.0565016 0.0565016 0.0564133 0.0564133 0.0563258 0.0563258 0.0562389 0.0562389 0.0561526 0.0561526 0.056067 0.056067 0.0559821 0.0559821 0.0558978 0.0558978 0.0558141 0.0558141 0.055731 0.055731 0.0556485 0.0556485 0.0555666 0.0555666 0.0554853 0.0554853 0.0554046 0.0554046 0.0553244 0.0553244 0.0552448 0.0552448 0.0551657 0.0551657 0.0550871 0.0550871 0.0550091 0.0550091 0.0549316 0.0549316 0.0548546 0.0548546 0.0547781 0.0547781 0.0547021 0.0547021 0.0546265 0.0546265 0.0545515 0.0545515 0.0544769 0.0544769 0.0544027 0.0544027 0.0543291 0.0543291 0.0542558 0.0542558 0.054183 0.054183 0.0541106 0.0541106 0.0540386 0.0540386 0.0539671 0.0539671 0.0538959 0.0538959 0.0538251 0.0538251 0.0537548 0.0537548 0.0536848 0.0536848 0.0536151 0.0536151 0.0535459 0.0535459 0.053477 0.053477 0.0534084 0.0534084 0.0533402 0.0533402 0.0532724 0.0532724 0.0532048 0.0532048 0.0531376 0.0531376 0.0530708 0.0530708 0.0530042 0.0530042 0.0529379 0.0529379 0.052872 0.052872 0.0528063 0.0528063 0.0527409 0.0527409 0.0526758 0.0526758 0.052611 0.052611 0.0525464 0.0525464 0.0524821 0.0524821 0.0524181 0.0524181 0.0523543 0.0523543 0.0522907 0.0522907 0.0522274 0.0522274 0.0521644 0.0521644 0.0521015 0.0521015 0.0520389 0.0520389 0.0519765 0.0519765 0.0519143 0.0519143 0.0518523 0.0518523 0.0517905 0.0517905 0.0517288 0.0517288 0.0516674 0.0516674 0.0516062 0.0516062 0.0515451 0.0515451 0.0514842 0.0514842 0.0514234 0.0514234 0.0513628 0.0513628 0.0513024 0.0513024 0.0512421 0.0512421 0.051182 0.051182 0.051122 0.051122 0.0510621 0.0510621 0.0510023 0.0510023 0.0509427 0.0509427 0.0508832 0.0508832 0.0508237 0.0508237 0.0507644 0.0507644 0.0507052 0.0507052 0.0506461 0.0506461 0.050587 0.050587 0.050528 0.050528 0.0504691 0.0504691 0.0504103 0.0504103 0.0503516 0.0503516 0.0502928 0.0502928 0.0502342 0.0502342 0.0501756 0.0501756 0.050117 0.050117 0.0500585 0.0500585 0.05 0.05 0.0499415 0.0499415 0.049883 0.049883 0.0498246 0.0498246 0.0497661 0.0497661 0.0497077 0.0497077 0.0496492 0.0496492 0.0495908 0.0495908 0.0495323 0.0495323 0.0494738 0.0494738 0.0494153 0.0494153 0.0493567 0.0493567 0.0492981 0.0492981 0.0492395 0.0492395 0.0491808 0.0491808 0.049122 0.049122 0.0490632 0.0490632 0.0490043 0.0490043 0.0489453 0.0489453 0.0488862 0.0488862 0.0488271 0.0488271 0.0487679 0.0487679 0.0487085 0.0487085 0.0486491 0.0486491 0.0485895 0.0485895 0.0485298 0.0485298 0.04847 0.04847 0.0484101 0.0484101 0.04835 0.04835 0.0482897 0.0482897 0.0482293 0.0482293 0.0481688 0.0481688 0.048108 0.048108 0.0480471 0.0480471 0.0479861 0.0479861 0.0479248 0.0479248 0.0478633 0.0478633 0.0478016 0.0478016 0.0477398 0.0477398 0.0476777 0.0476777 0.0476153 0.0476153 0.0475528 0.0475528 0.0474899 0.0474899 0.0474269 0.0474269 0.0473636 0.0473636 0.0473 0.0473 0.0472361 0.0472361 0.047172 0.047172 0.0471076 0.0471076 0.0470428 0.0470428 0.0469778 0.0469778 0.0469125 0.0469125 0.0468468 0.0468468 0.0467808 0.0467808 0.0467144 0.0467144 0.0466477 0.0466477 0.0465806 0.0465806 0.0465132 0.0465132 0.0464454 0.0464454 0.0463772 0.0463772 0.0463086 0.0463086 0.0462396 0.0462396 0.0461701 0.0461701 0.0461003 0.0461003 0.04603 0.04603 0.0459592 0.0459592 0.045888 0.045888 0.0458163 0.0458163 0.0457442 0.0457442 0.0456715 0.0456715 0.0455983 0.0455983 0.0455246 0.0455246 0.0454504 0.0454504 0.0453757 0.0453757 0.0453004 0.0453004 0.0452245 0.0452245 0.0451481 0.0451481 0.0450711 0.0450711 0.0449934 0.0449934 0.0449152 0.0449152 0.0448363 0.0448363 0.0447568 0.0447568 0.0446766 0.0446766 0.0445958 0.0445958 0.0445143 0.0445143 0.0444321 0.0444321 0.0443491 0.0443491 0.0442655 0.0442655 0.0441811 0.0441811 0.044096 0.044096 0.0440101 0.0440101 0.0439233 0.0439233 0.0438358 0.0438358 0.0437475 0.0437475 0.0436584 0.0436584 0.0435684 0.0435684 0.0434775 0.0434775 0.0433857 0.0433857 0.0432931 0.0432931 0.0431995 0.0431995 0.043105 0.043105 0.0430095 0.0430095 0.0429131 0.0429131 0.0428157 0.0428157 0.0427172 0.0427172 0.0426178 0.0426178 0.0425173 0.0425173 0.0424157 0.0424157 0.042313 0.042313 0.0422093 0.0422093 0.0421044 0.0421044 0.0419984 0.0419984 0.0418912 0.0418912 0.0417828 0.0417828 0.0416732 0.0416732 0.0415624 0.0415624 0.0414504 0.0414504 0.041337 0.041337 0.0412224 0.0412224 0.0411065 0.0411065 0.0409893 0.0409893 0.0408707 0.0408707 0.0407508 0.0407508 0.0406294 0.0406294 0.0405067 0.0405067 0.0403825 0.0403825 0.0402569 0.0402569 0.0401298 0.0401298 0.0400012 0.0400012 0.039871 0.039871 0.0397394 0.0397394 0.0396061 0.0396061 0.0394713 0.0394713 0.0393349 0.0393349 0.0391969 0.0391969 0.0390572 0.0390572 0.0389158 0.0389158 0.0387728 0.0387728 0.038628 0.038628 0.0384815 0.0384815 0.0383332 0.0383332 0.0381831 0.0381831 0.0380313 0.0380313 0.0378775 0.0378775 0.0377219 0.0377219 0.0375644 0.0375644 0.0374049 0.0374049 0.0372435 0.0372435 0.03708 0.03708 0.0369145 0.0369145 0.0367469 0.0367469 0.0365771 0.0365771 0.0364051 0.0364051 0.0362309 0.0362309 0.0360543 0.0360543 0.0358753 0.0358753 0.0356939 0.0356939 0.0355098 0.0355098 0.0353231 0.0353231 0.0351336 0.0351336 0.0349411 0.0349411 0.0347457 0.0347457 0.034547 0.034547 0.034345 0.034345 0.0341395 0.0341395 0.0339302 0.0339302 0.033717 0.033717 0.0334995 0.0334995 0.0332776 0.0332776 0.0330509 0.0330509 0.0328191 0.0328191 0.0325818 0.0325818 0.0323387 0.0323387 0.0320893 0.0320893 0.0318331 0.0318331 0.0315696 0.0315696 0.0312983 0.0312983 0.0310186 0.0310186 0.0307297 0.0307297 0.030431 0.030431 0.0301217 0.0301217 0.029801 0.029801 0.0294679 0.0294679 0.0291214 0.0291214 0.0287606 0.0287606 0.0283842 0.0283842 0.0279911 0.0279911 0.0275799 0.0275799 0.0271492 0.0271492 0.0266976 0.0266976 0.0262235 0.0262235 0.0257251 0.0257251 0.0252007 0.0252007 0.0246483 0.0246483 0.0240659 0.0240659 0.0234514 0.0234514 0.0228025 0.0228025 0.0221167 0.0221167 0.0213917 0.0213917 0.0206246 0.0206246 0.0198127 0.0198127 0.0189532 0.0189532 0.0180429 0.0180429 0.0170786 0.0170786 0.0160571 0.0160571 0.0149748 0.0149748 0.0138282 0.0138282 0.0126135 0.0126135 0.0113269 0.0113269 0.00996439 0.00996439 0.00852186 0.00852186 0.00699509 0.00699509 0.00537977 0.00537977 0.00367149 0.00367149 0.00186572 0.00186572 -4.21118e-05 -4.21118e-05 -0.00205666 -0.00205666 -0.00418263 -0.00418263 -0.00642476 -0.00642476 -0.00878781 -0.00878781 -0.0112765 -0.0112765 -0.0138957 -0.0138957 -0.0166499 -0.0166499 -0.019544 -0.019544 -0.0225823 -0.0225823 -0.0257693 -0.0257693 -0.0291093 -0.0291093 -0.0326064 -0.0326064 -0.0362645 -0.0362645 -0.0400873 -0.0400873 -0.044078 -0.044078 -0.0482397 -0.0482397 -0.0525751 -0.0525751 -0.0570865 -0.0570865 -0.0617758 -0.0617758 -0.0666442 -0.0666442 -0.0716926 -0.0716926 -0.0769212 -0.0769212 -0.0823296 -0.0823296 -0.0879169 -0.0879169 -0.0936811 -0.0936811 -0.0996197 -0.0996197 -0.105729 -0.105729 -0.112006 -0.112006 -0.118444 -0.118444 -0.125038 -0.125038 -0.13178 -0.13178 -0.138662 -0.138662 -0.145676 -0.145676 -0.15281 -0.15281 -0.160052 -0.160052 -0.167392 -0.167392 -0.174813 -0.174813 -0.182301 -0.182301 -0.189839 -0.189839 -0.19741 -0.19741 -0.204994 -0.204994 -0.21257 -0.21257 -0.220117 -0.220117 -0.227611 -0.227611 -0.235028 -0.235028 -0.242341 -0.242341 -0.249524 -0.249524 -0.256548 -0.256548 -0.263384 -0.263384 -0.269999 -0.269999 -0.276363 -0.276363 -0.282441 -0.282441 -0.2882 -0.2882 -0.293604 -0.293604 -0.298617 -0.298617 -0.303203 -0.303203 -0.307323 -0.307323 -0.310941 -0.310941 -0.314016 -0.314016 -0.31651 -0.31651 -0.318385 -0.318385 -0.3196 -0.3196 -0.320117 -0.320117 -0.319896 -0.319896 -0.3189 -0.3189 -0.317091 -0.317091 -0.314431 -0.314431 -0.310883 -0.310883 -0.306414 -0.306414 -0.300989 -0.300989 -0.294575 -0.294575 -0.287143 -0.287143 -0.278662 -0.278662 -0.269107 -0.269107 -0.258453 -0.258453 -0.246677 -0.246677 -0.233761 -0.233761 -0.219688 -0.219688 -0.204443 -0.204443 -0.188017 -0.188017 -0.170402 -0.170402 -0.151595 -0.151595 -0.131595 -0.131595 -0.110406 -0.110406 -0.0880357 -0.0880357 -0.0644957 -0.0644957 -0.0398014 -0.0398014 -0.0139727 -0.0139727 0.0129665 0.0129665 0.0409879 0.0409879 0.0700591 0.0700591 0.100143 0.100143 0.131199 0.131199 0.163182 0.163182 0.196041 0.196041 0.229724 0.229724 0.264173 0.264173 0.299326 0.299326 0.335119 0.335119 0.371482 0.371482 0.408343 0.408343 0.445628 0.445628 0.483258 0.483258 0.521152 0.521152 0.559227 0.559227 0.597397 0.597397 0.635577 0.635577 0.673675 0.673675 0.711604 0.711604 0.749273 0.749273 0.78659 0.78659 0.823463 0.823463 0.859803 0.859803 0.895519 0.895519 0.930522 0.930522 0.964724 0.964724 0.998038 0.998038 1.03038 1.03038 1.06167 1.06167 1.09183 1.09183 1.12078 1.12078 1.14845 1.14845 1.17478 1.17478 1.19969 1.19969 1.22313 1.22313 1.24504 1.24504 1.26538 1.26538 1.28409 1.28409 1.30114 1.30114 1.3165 1.3165 1.33012 1.33012 1.342 1.342 1.3521 1.3521 1.36043 1.36043 1.36697 1.36697 1.37171 1.37171 1.37468 1.37468 1.37587 1.37587 1.3753 1.3753 1.37299 1.37299 1.36898 1.36898 1.36328 1.36328 1.35594 1.35594 1.34699 1.34699 1.33649 1.33649 1.32448 1.32448 1.31101 1.31101 1.29614 1.29614 1.27993 1.27993 1.26245 1.26245 1.24375 1.24375 1.2239 1.2239 1.20299 1.20299 1.18106 1.18106 1.15821 1.15821 1.1345 1.1345 1.11 1.11 1.0848 1.0848 1.05896 1.05896 1.03255 1.03255 1.00567 1.00567 0.978363 0.978363 0.950718 0.950718 0.922801 0.922801 0.89468 0.89468 0.866424 0.866424 0.838096 0.838096 0.80976 0.80976 0.781477 0.781477 0.753304 0.753304 0.725297 0.725297 0.697508 0.697508 0.669987 0.669987 0.642781 0.642781 0.615935 0.615935 0.589488 0.589488 0.56348 0.56348 0.537944 0.537944 0.512913 0.512913 0.488415 0.488415 0.464476 0.464476 0.441119 0.441119 0.418364 0.418364 0.396228 0.396228 0.374726 0.374726 0.353869 0.353869 0.333667 0.333667 0.314126 0.314126 0.295251 0.295251 0.277044 0.277044 0.259506 0.259506 0.242633 0.242633 0.226424 0.226424 0.210872 0.210872 0.195969 0.195969 0.181709 0.181709 0.16808 0.16808 0.155072 0.155072 0.142673 0.142673 0.130868 0.130868 0.119645 0.119645 0.108988 0.108988 0.0988822 0.0988822 0.0893107 0.0893107 0.0802573 0.0802573 0.0717052 0.0717052 0.063637 0.063637 0.0560356 0.0560356 0.0488834 0.0488834 0.0421629 0.0421629 0.0358567 0.0358567 0.0299474 0.0299474 0.0244177 0.0244177 0.0192507 0.0192507 0.0144295 0.0144295 0.00993785 0.00993785 0.00575948 0.00575948 0.00187867 0.00187867 -0.00171993 -0.00171993 -0.00505125 -0.00505125 -0.00812977 -0.00812977 -0.0109695 -0.0109695 -0.0135841 -0.0135841 -0.0159864 -0.0159864 -0.0181892 -0.0181892 -0.0202045 -0.0202045 -0.0220439 -0.0220439 -0.0237183 -0.0237183 -0.0252385 -0.0252385 -0.0266145 -0.0266145 -0.0278559 -0.0278559 -0.0289719 -0.0289719 -0.029971 -0.029971 -0.0308616 -0.0308616 -0.0316514 -0.0316514 -0.0323477 -0.0323477 -0.0329574 -0.0329574 -0.033487 -0.033487 -0.0339428 -0.0339428 -0.0343304 -0.0343304 -0.0346552 -0.0346552 -0.0349223 -0.0349223 -0.0351364 -0.0351364 -0.0353019 -0.0353019 -0.035423 -0.035423 -0.0355035 -0.0355035 -0.0355469 -0.0355469 -0.0355566 -0.0355566 -0.0355356 -0.0355356 -0.0354867 -0.0354867 -0.0354127 -0.0354127 -0.035316 -0.035316 -0.0351987 -0.0351987 -0.035063 -0.035063 -0.0349108 -0.0349108 -0.0347438 -0.0347438 -0.0345637 -0.0345637 -0.0343718 -0.0343718 -0.0341697 -0.0341697 -0.0339584 -0.0339584 -0.0337391 -0.0337391 -0.033513 -0.033513 -0.0332808 -0.0332808 -0.0330434 -0.0330434 -0.0328017 -0.0328017 -0.0325564 -0.0325564 -0.0323079 -0.0323079 -0.032057 -0.032057 -0.0318042 -0.0318042 -0.0315499 -0.0315499 -0.0312945 -0.0312945 -0.0310385 -0.0310385 -0.0307821 -0.0307821 -0.0305257 -0.0305257 -0.0302694 -0.0302694 -0.0300137 -0.0300137 -0.0297586 -0.0297586 -0.0295045 -0.0295045 -0.0292513 -0.0292513 -0.0289993 -0.0289993 -0.0287487 -0.0287487 -0.0284994 -0.0284994 -0.0282517 -0.0282517 -0.0280055 -0.0280055 -0.0277611 -0.0277611 -0.0275184 -0.0275184 -0.0272774 -0.0272774 -0.0270383 -0.0270383 -0.026801 -0.026801 -0.0265657 -0.0265657 -0.0263322 -0.0263322 -0.0261007 -0.0261007 -0.0258711 -0.0258711 -0.0256435 -0.0256435 -0.0254178 -0.0254178 -0.025194 -0.025194 -0.0249722 -0.0249722 -0.0247524 -0.0247524 -0.0245345 -0.0245345 -0.0243185 -0.0243185 -0.0241044 -0.0241044 -0.0238922 -0.0238922 -0.023682 -0.023682 -0.0234736 -0.0234736 -0.023267 -0.023267 -0.0230623 -0.0230623 -0.0228595 -0.0228595 -0.0226584 -0.0226584 -0.0224591 -0.0224591 -0.0222616 -0.0222616 -0.0220659 -0.0220659 -0.0218719 -0.0218719 -0.0216796 -0.0216796 -0.0214891 -0.0214891 -0.0213002 -0.0213002 -0.0211129 -0.0211129 -0.0209274 -0.0209274 -0.0207434 -0.0207434 -0.0205611 -0.0205611 -0.0203803 -0.0203803 -0.0202011 -0.0202011 -0.0200235 -0.0200235 -0.0198474 -0.0198474 -0.0196728 -0.0196728 -0.0194997 -0.0194997 -0.0193281 -0.0193281 -0.019158 -0.019158 -0.0189893 -0.0189893 -0.018822 -0.018822 -0.0186562 -0.0186562 -0.0184917 -0.0184917 -0.0183287 -0.0183287 -0.018167 -0.018167 -0.0180067 -0.0180067 -0.0178477 -0.0178477 -0.01769 -0.01769 -0.0175336 -0.0175336 -0.0173786 -0.0173786 -0.0172248 -0.0172248 -0.0170722 -0.0170722 -0.0169209 -0.0169209 -0.0167709 -0.0167709 -0.0166221 -0.0166221 -0.0164745 -0.0164745 -0.016328 -0.016328 -0.0161828 -0.0161828 -0.0160387 -0.0160387 -0.0158958 -0.0158958 -0.015754 -0.015754 -0.0156134 -0.0156134 -0.0154739 -0.0154739 -0.0153354 -0.0153354 -0.0151981 -0.0151981 -0.0150619 -0.0150619 -0.0149267 -0.0149267 -0.0147926 -0.0147926 -0.0146595 -0.0146595 -0.0145275 -0.0145275 -0.0143965 -0.0143965 -0.0142665 -0.0142665 -0.0141376 -0.0141376 -0.0140096 -0.0140096 -0.0138826 -0.0138826 -0.0137565 -0.0137565 -0.0136315 -0.0136315 -0.0135074 -0.0135074 -0.0133842 -0.0133842 -0.013262 -0.013262 -0.0131407 -0.0131407 -0.0130203 -0.0130203 -0.0129008 -0.0129008 -0.0127822 -0.0127822 -0.0126645 -0.0126645 -0.0125477 -0.0125477 -0.0124318 -0.0124318 -0.0123167 -0.0123167 -0.0122024 -0.0122024 -0.0120891 -0.0120891 -0.0119765 -0.0119765 -0.0118648 -0.0118648 -0.0117539 -0.0117539 -0.0116438 -0.0116438 -0.0115345 -0.0115345 -0.011426 -0.011426 -0.0113183 -0.0113183 -0.0112113 -0.0112113 -0.0111052 -0.0111052 -0.0109998 -0.0109998 -0.0108951 -0.0108951 -0.0107912 -0.0107912 -0.0106881 -0.0106881 -0.0105857 -0.0105857 -0.010484 -0.010484 -0.010383 -0.010383 -0.0102828 -0.0102828 -0.0101833 -0.0101833 -0.0100844 -0.0100844 -0.00998629 -0.00998629 -0.00988884 -0.00988884 -0.00979207 -0.00979207 -0.00969598 -0.00969598 -0.00960055 -0.00960055 -0.00950579 -0.00950579 -0.00941169 -0.00941169 -0.00931823 -0.00931823 -0.00922542 -0.00922542 -0.00913325 -0.00913325 -0.00904172 -0.00904172 -0.00895081 -0.00895081 -0.00886052 -0.00886052 -0.00877084 -0.00877084 -0.00868178 -0.00868178 -0.00859332 -0.00859332 -0.00850546 -0.00850546 -0.0084182 -0.0084182 -0.00833152 -0.00833152 -0.00824543 -0.00824543 -0.00815991 -0.00815991 -0.00807497 -0.00807497 -0.00799059 -0.00799059 -0.00790678 -0.00790678 -0.00782353 -0.00782353 -0.00774082 -0.00774082 -0.00765867 -0.00765867 -0.00757706 -0.00757706 -0.00749599 -0.00749599 -0.00741545 -0.00741545 -0.00733544 -0.00733544 -0.00725595 -0.00725595 -0.00717699 -0.00717699 -0.00709854 -0.00709854 -0.0070206 -0.0070206 -0.00694316 -0.00694316 -0.00686623 -0.00686623 -0.0067898 -0.0067898 -0.00671386 -0.00671386 -0.00663841 -0.00663841 -0.00656344 -0.00656344 -0.00648896 -0.00648896 -0.00641495 -0.00641495 -0.00634141 -0.00634141 -0.00626835 -0.00626835 -0.00619575 -0.00619575 -0.00612361 -0.00612361 -0.00605192 -0.00605192 -0.00598069 -0.00598069 -0.00590991 -0.00590991 -0.00583958 -0.00583958 -0.00576969 -0.00576969 -0.00570024 -0.00570024 -0.00563122 -0.00563122 -0.00556263 -0.00556263 -0.00549447 -0.00549447 -0.00542673 -0.00542673 -0.00535942 -0.00535942 -0.00529252 -0.00529252 -0.00522604 -0.00522604 -0.00515997 -0.00515997 -0.0050943 -0.0050943 -0.00502904 -0.00502904 -0.00496418 -0.00496418 -0.00489971 -0.00489971 -0.00483564 -0.00483564 -0.00477196 -0.00477196 -0.00470867 -0.00470867 -0.00464576 -0.00464576 -0.00458324 -0.00458324 -0.00452109 -0.00452109 -0.00445932 -0.00445932 -0.00439792 -0.00439792 -0.0043369 -0.0043369 -0.00427623 -0.00427623 -0.00421594 -0.00421594 -0.004156 -0.004156 -0.00409642 -0.00409642 -0.0040372 -0.0040372 -0.00397833 -0.00397833 -0.00391981 -0.00391981 -0.00386163 -0.00386163 -0.0038038 -0.0038038 -0.00374631 -0.00374631 -0.00368917 -0.00368917 -0.00363235 -0.00363235 -0.00357587 -0.00357587 -0.00351973 -0.00351973 -0.00346391 -0.00346391 -0.00340842 -0.00340842 -0.00335325 -0.00335325 -0.0032984 -0.0032984 -0.00324387 -0.00324387 -0.00318966 -0.00318966 -0.00313576 -0.00313576 -0.00308218 -0.00308218 -0.0030289 -0.0030289 -0.00297593 -0.00297593 -0.00292326 -0.00292326 -0.0028709 -0.0028709 -0.00281883 -0.00281883 -0.00276707 -0.00276707 -0.0027156 -0.0027156 -0.00266442 -0.00266442 -0.00261353 -0.00261353 -0.00256294 -0.00256294 -0.00251263 -0.00251263 -0.0024626 -0.0024626 -0.00241286 -0.00241286 -0.0023634 -0.0023634 -0.00231421 -0.00231421 -0.0022653 -0.0022653 -0.00221667 -0.00221667 -0.00216831 -0.00216831 -0.00212022 -0.00212022 -0.0020724 -0.0020724 -0.00202484 -0.00202484 -0.00197755 -0.00197755 -0.00193052 -0.00193052 -0.00188375 -0.00188375 -0.00183724 -0.00183724 -0.00179099 -0.00179099 -0.00174499 -0.00174499 -0.00169925 -0.00169925 -0.00165375 -0.00165375 -0.00160851 -0.00160851 -0.00156351 -0.00156351 -0.00151876 -0.00151876 -0.00147426 -0.00147426 -0.00143 -0.00143 -0.00138597 -0.00138597 -0.00134219 -0.00134219 -0.00129864 -0.00129864 -0.00125533 -0.00125533 -0.00121226 -0.00121226 -0.00116941 -0.00116941 -0.0011268 -0.0011268 -0.00108442 -0.00108442 -0.00104226 -0.00104226 -0.00100033 -0.00100033 -0.000958623 -0.000958623 -0.000917139 -0.000917139 -0.000875877 -0.000875877 -0.000834834 -0.000834834 -0.000794009 -0.000794009 -0.000753401 -0.000753401 -0.000713007 -0.000713007 -0.000672828 -0.000672828 -0.00063286 -0.00063286 -0.000593103 -0.000593103 -0.00