# vtk DataFile Version 3.0
#This file was generated by the deal.II library on 2020/9/1 at 14:41:05
ASCII
DATASET UNSTRUCTURED_GRID

POINTS 2048 double
1.5 0 0
1.59619 0 0
1.59619 0 0
1.69238 0 0
1.69238 0 0
1.78857 0 0
1.78857 0 0
1.88477 0 0
1.88477 0 0
1.98096 0 0
1.98096 0 0
2.07715 0 0
2.07715 0 0
2.17334 0 0
2.17334 0 0
2.26953 0 0
2.26953 0 0
2.36572 0 0
2.36572 0 0
2.46191 0 0
2.46191 0 0
2.55811 0 0
2.55811 0 0
2.6543 0 0
2.6543 0 0
2.75049 0 0
2.75049 0 0
2.84668 0 0
2.84668 0 0
2.94287 0 0
2.94287 0 0
3.03906 0 0
3.03906 0 0
3.13525 0 0
3.13525 0 0
3.23145 0 0
3.23145 0 0
3.32764 0 0
3.32764 0 0
3.42383 0 0
3.42383 0 0
3.52002 0 0
3.52002 0 0
3.61621 0 0
3.61621 0 0
3.7124 0 0
3.7124 0 0
3.80859 0 0
3.80859 0 0
3.90479 0 0
3.90479 0 0
4.00098 0 0
4.00098 0 0
4.09717 0 0
4.09717 0 0
4.19336 0 0
4.19336 0 0
4.28955 0 0
4.28955 0 0
4.38574 0 0
4.38574 0 0
4.48193 0 0
4.48193 0 0
4.57812 0 0
4.57812 0 0
4.67432 0 0
4.67432 0 0
4.77051 0 0
4.77051 0 0
4.8667 0 0
4.8667 0 0
4.96289 0 0
4.96289 0 0
5.05908 0 0
5.05908 0 0
5.15527 0 0
5.15527 0 0
5.25146 0 0
5.25146 0 0
5.34766 0 0
5.34766 0 0
5.44385 0 0
5.44385 0 0
5.54004 0 0
5.54004 0 0
5.63623 0 0
5.63623 0 0
5.73242 0 0
5.73242 0 0
5.82861 0 0
5.82861 0 0
5.9248 0 0
5.9248 0 0
6.021 0 0
6.021 0 0
6.11719 0 0
6.11719 0 0
6.21338 0 0
6.21338 0 0
6.30957 0 0
6.30957 0 0
6.40576 0 0
6.40576 0 0
6.50195 0 0
6.50195 0 0
6.59814 0 0
6.59814 0 0
6.69434 0 0
6.69434 0 0
6.79053 0 0
6.79053 0 0
6.88672 0 0
6.88672 0 0
6.98291 0 0
6.98291 0 0
7.0791 0 0
7.0791 0 0
7.17529 0 0
7.17529 0 0
7.27148 0 0
7.27148 0 0
7.36768 0 0
7.36768 0 0
7.46387 0 0
7.46387 0 0
7.56006 0 0
7.56006 0 0
7.65625 0 0
7.65625 0 0
7.75244 0 0
7.75244 0 0
7.84863 0 0
7.84863 0 0
7.94482 0 0
7.94482 0 0
8.04102 0 0
8.04102 0 0
8.13721 0 0
8.13721 0 0
8.2334 0 0
8.2334 0 0
8.32959 0 0
8.32959 0 0
8.42578 0 0
8.42578 0 0
8.52197 0 0
8.52197 0 0
8.61816 0 0
8.61816 0 0
8.71436 0 0
8.71436 0 0
8.81055 0 0
8.81055 0 0
8.90674 0 0
8.90674 0 0
9.00293 0 0
9.00293 0 0
9.09912 0 0
9.09912 0 0
9.19531 0 0
9.19531 0 0
9.2915 0 0
9.2915 0 0
9.3877 0 0
9.3877 0 0
9.48389 0 0
9.48389 0 0
9.58008 0 0
9.58008 0 0
9.67627 0 0
9.67627 0 0
9.77246 0 0
9.77246 0 0
9.86865 0 0
9.86865 0 0
9.96484 0 0
9.96484 0 0
10.061 0 0
10.061 0 0
10.1572 0 0
10.1572 0 0
10.2534 0 0
10.2534 0 0
10.3496 0 0
10.3496 0 0
10.4458 0 0
10.4458 0 0
10.542 0 0
10.542 0 0
10.6382 0 0
10.6382 0 0
10.7344 0 0
10.7344 0 0
10.8306 0 0
10.8306 0 0
10.9268 0 0
10.9268 0 0
11.0229 0 0
11.0229 0 0
11.1191 0 0
11.1191 0 0
11.2153 0 0
11.2153 0 0
11.3115 0 0
11.3115 0 0
11.4077 0 0
11.4077 0 0
11.5039 0 0
11.5039 0 0
11.6001 0 0
11.6001 0 0
11.6963 0 0
11.6963 0 0
11.7925 0 0
11.7925 0 0
11.8887 0 0
11.8887 0 0
11.9849 0 0
11.9849 0 0
12.0811 0 0
12.0811 0 0
12.1772 0 0
12.1772 0 0
12.2734 0 0
12.2734 0 0
12.3696 0 0
12.3696 0 0
12.4658 0 0
12.4658 0 0
12.562 0 0
12.562 0 0
12.6582 0 0
12.6582 0 0
12.7544 0 0
12.7544 0 0
12.8506 0 0
12.8506 0 0
12.9468 0 0
12.9468 0 0
13.043 0 0
13.043 0 0
13.1392 0 0
13.1392 0 0
13.2354 0 0
13.2354 0 0
13.3315 0 0
13.3315 0 0
13.4277 0 0
13.4277 0 0
13.5239 0 0
13.5239 0 0
13.6201 0 0
13.6201 0 0
13.7163 0 0
13.7163 0 0
13.8125 0 0
13.8125 0 0
13.9087 0 0
13.9087 0 0
14.0049 0 0
14.0049 0 0
14.1011 0 0
14.1011 0 0
14.1973 0 0
14.1973 0 0
14.2935 0 0
14.2935 0 0
14.3896 0 0
14.3896 0 0
14.4858 0 0
14.4858 0 0
14.582 0 0
14.582 0 0
14.6782 0 0
14.6782 0 0
14.7744 0 0
14.7744 0 0
14.8706 0 0
14.8706 0 0
14.9668 0 0
14.9668 0 0
15.063 0 0
15.063 0 0
15.1592 0 0
15.1592 0 0
15.2554 0 0
15.2554 0 0
15.3516 0 0
15.3516 0 0
15.4478 0 0
15.4478 0 0
15.5439 0 0
15.5439 0 0
15.6401 0 0
15.6401 0 0
15.7363 0 0
15.7363 0 0
15.8325 0 0
15.8325 0 0
15.9287 0 0
15.9287 0 0
16.0249 0 0
16.0249 0 0
16.1211 0 0
16.1211 0 0
16.2173 0 0
16.2173 0 0
16.3135 0 0
16.3135 0 0
16.4097 0 0
16.4097 0 0
16.5059 0 0
16.5059 0 0
16.6021 0 0
16.6021 0 0
16.6982 0 0
16.6982 0 0
16.7944 0 0
16.7944 0 0
16.8906 0 0
16.8906 0 0
16.9868 0 0
16.9868 0 0
17.083 0 0
17.083 0 0
17.1792 0 0
17.1792 0 0
17.2754 0 0
17.2754 0 0
17.3716 0 0
17.3716 0 0
17.4678 0 0
17.4678 0 0
17.564 0 0
17.564 0 0
17.6602 0 0
17.6602 0 0
17.7563 0 0
17.7563 0 0
17.8525 0 0
17.8525 0 0
17.9487 0 0
17.9487 0 0
18.0449 0 0
18.0449 0 0
18.1411 0 0
18.1411 0 0
18.2373 0 0
18.2373 0 0
18.3335 0 0
18.3335 0 0
18.4297 0 0
18.4297 0 0
18.5259 0 0
18.5259 0 0
18.6221 0 0
18.6221 0 0
18.7183 0 0
18.7183 0 0
18.8145 0 0
18.8145 0 0
18.9106 0 0
18.9106 0 0
19.0068 0 0
19.0068 0 0
19.103 0 0
19.103 0 0
19.1992 0 0
19.1992 0 0
19.2954 0 0
19.2954 0 0
19.3916 0 0
19.3916 0 0
19.4878 0 0
19.4878 0 0
19.584 0 0
19.584 0 0
19.6802 0 0
19.6802 0 0
19.7764 0 0
19.7764 0 0
19.8726 0 0
19.8726 0 0
19.9688 0 0
19.9688 0 0
20.0649 0 0
20.0649 0 0
20.1611 0 0
20.1611 0 0
20.2573 0 0
20.2573 0 0
20.3535 0 0
20.3535 0 0
20.4497 0 0
20.4497 0 0
20.5459 0 0
20.5459 0 0
20.6421 0 0
20.6421 0 0
20.7383 0 0
20.7383 0 0
20.8345 0 0
20.8345 0 0
20.9307 0 0
20.9307 0 0
21.0269 0 0
21.0269 0 0
21.123 0 0
21.123 0 0
21.2192 0 0
21.2192 0 0
21.3154 0 0
21.3154 0 0
21.4116 0 0
21.4116 0 0
21.5078 0 0
21.5078 0 0
21.604 0 0
21.604 0 0
21.7002 0 0
21.7002 0 0
21.7964 0 0
21.7964 0 0
21.8926 0 0
21.8926 0 0
21.9888 0 0
21.9888 0 0
22.085 0 0
22.085 0 0
22.1812 0 0
22.1812 0 0
22.2773 0 0
22.2773 0 0
22.3735 0 0
22.3735 0 0
22.4697 0 0
22.4697 0 0
22.5659 0 0
22.5659 0 0
22.6621 0 0
22.6621 0 0
22.7583 0 0
22.7583 0 0
22.8545 0 0
22.8545 0 0
22.9507 0 0
22.9507 0 0
23.0469 0 0
23.0469 0 0
23.1431 0 0
23.1431 0 0
23.2393 0 0
23.2393 0 0
23.3354 0 0
23.3354 0 0
23.4316 0 0
23.4316 0 0
23.5278 0 0
23.5278 0 0
23.624 0 0
23.624 0 0
23.7202 0 0
23.7202 0 0
23.8164 0 0
23.8164 0 0
23.9126 0 0
23.9126 0 0
24.0088 0 0
24.0088 0 0
24.105 0 0
24.105 0 0
24.2012 0 0
24.2012 0 0
24.2974 0 0
24.2974 0 0
24.3936 0 0
24.3936 0 0
24.4897 0 0
24.4897 0 0
24.5859 0 0
24.5859 0 0
24.6821 0 0
24.6821 0 0
24.7783 0 0
24.7783 0 0
24.8745 0 0
24.8745 0 0
24.9707 0 0
24.9707 0 0
25.0669 0 0
25.0669 0 0
25.1631 0 0
25.1631 0 0
25.2593 0 0
25.2593 0 0
25.3555 0 0
25.3555 0 0
25.4517 0 0
25.4517 0 0
25.5479 0 0
25.5479 0 0
25.644 0 0
25.644 0 0
25.7402 0 0
25.7402 0 0
25.8364 0 0
25.8364 0 0
25.9326 0 0
25.9326 0 0
26.0288 0 0
26.0288 0 0
26.125 0 0
26.125 0 0
26.2212 0 0
26.2212 0 0
26.3174 0 0
26.3174 0 0
26.4136 0 0
26.4136 0 0
26.5098 0 0
26.5098 0 0
26.606 0 0
26.606 0 0
26.7021 0 0
26.7021 0 0
26.7983 0 0
26.7983 0 0
26.8945 0 0
26.8945 0 0
26.9907 0 0
26.9907 0 0
27.0869 0 0
27.0869 0 0
27.1831 0 0
27.1831 0 0
27.2793 0 0
27.2793 0 0
27.3755 0 0
27.3755 0 0
27.4717 0 0
27.4717 0 0
27.5679 0 0
27.5679 0 0
27.6641 0 0
27.6641 0 0
27.7603 0 0
27.7603 0 0
27.8564 0 0
27.8564 0 0
27.9526 0 0
27.9526 0 0
28.0488 0 0
28.0488 0 0
28.145 0 0
28.145 0 0
28.2412 0 0
28.2412 0 0
28.3374 0 0
28.3374 0 0
28.4336 0 0
28.4336 0 0
28.5298 0 0
28.5298 0 0
28.626 0 0
28.626 0 0
28.7222 0 0
28.7222 0 0
28.8184 0 0
28.8184 0 0
28.9146 0 0
28.9146 0 0
29.0107 0 0
29.0107 0 0
29.1069 0 0
29.1069 0 0
29.2031 0 0
29.2031 0 0
29.2993 0 0
29.2993 0 0
29.3955 0 0
29.3955 0 0
29.4917 0 0
29.4917 0 0
29.5879 0 0
29.5879 0 0
29.6841 0 0
29.6841 0 0
29.7803 0 0
29.7803 0 0
29.8765 0 0
29.8765 0 0
29.9727 0 0
29.9727 0 0
30.0688 0 0
30.0688 0 0
30.165 0 0
30.165 0 0
30.2612 0 0
30.2612 0 0
30.3574 0 0
30.3574 0 0
30.4536 0 0
30.4536 0 0
30.5498 0 0
30.5498 0 0
30.646 0 0
30.646 0 0
30.7422 0 0
30.7422 0 0
30.8384 0 0
30.8384 0 0
30.9346 0 0
30.9346 0 0
31.0308 0 0
31.0308 0 0
31.127 0 0
31.127 0 0
31.2231 0 0
31.2231 0 0
31.3193 0 0
31.3193 0 0
31.4155 0 0
31.4155 0 0
31.5117 0 0
31.5117 0 0
31.6079 0 0
31.6079 0 0
31.7041 0 0
31.7041 0 0
31.8003 0 0
31.8003 0 0
31.8965 0 0
31.8965 0 0
31.9927 0 0
31.9927 0 0
32.0889 0 0
32.0889 0 0
32.1851 0 0
32.1851 0 0
32.2812 0 0
32.2812 0 0
32.3774 0 0
32.3774 0 0
32.4736 0 0
32.4736 0 0
32.5698 0 0
32.5698 0 0
32.666 0 0
32.666 0 0
32.7622 0 0
32.7622 0 0
32.8584 0 0
32.8584 0 0
32.9546 0 0
32.9546 0 0
33.0508 0 0
33.0508 0 0
33.147 0 0
33.147 0 0
33.2432 0 0
33.2432 0 0
33.3394 0 0
33.3394 0 0
33.4355 0 0
33.4355 0 0
33.5317 0 0
33.5317 0 0
33.6279 0 0
33.6279 0 0
33.7241 0 0
33.7241 0 0
33.8203 0 0
33.8203 0 0
33.9165 0 0
33.9165 0 0
34.0127 0 0
34.0127 0 0
34.1089 0 0
34.1089 0 0
34.2051 0 0
34.2051 0 0
34.3013 0 0
34.3013 0 0
34.3975 0 0
34.3975 0 0
34.4937 0 0
34.4937 0 0
34.5898 0 0
34.5898 0 0
34.686 0 0
34.686 0 0
34.7822 0 0
34.7822 0 0
34.8784 0 0
34.8784 0 0
34.9746 0 0
34.9746 0 0
35.0708 0 0
35.0708 0 0
35.167 0 0
35.167 0 0
35.2632 0 0
35.2632 0 0
35.3594 0 0
35.3594 0 0
35.4556 0 0
35.4556 0 0
35.5518 0 0
35.5518 0 0
35.6479 0 0
35.6479 0 0
35.7441 0 0
35.7441 0 0
35.8403 0 0
35.8403 0 0
35.9365 0 0
35.9365 0 0
36.0327 0 0
36.0327 0 0
36.1289 0 0
36.1289 0 0
36.2251 0 0
36.2251 0 0
36.3213 0 0
36.3213 0 0
36.4175 0 0
36.4175 0 0
36.5137 0 0
36.5137 0 0
36.6099 0 0
36.6099 0 0
36.7061 0 0
36.7061 0 0
36.8022 0 0
36.8022 0 0
36.8984 0 0
36.8984 0 0
36.9946 0 0
36.9946 0 0
37.0908 0 0
37.0908 0 0
37.187 0 0
37.187 0 0
37.2832 0 0
37.2832 0 0
37.3794 0 0
37.3794 0 0
37.4756 0 0
37.4756 0 0
37.5718 0 0
37.5718 0 0
37.668 0 0
37.668 0 0
37.7642 0 0
37.7642 0 0
37.8604 0 0
37.8604 0 0
37.9565 0 0
37.9565 0 0
38.0527 0 0
38.0527 0 0
38.1489 0 0
38.1489 0 0
38.2451 0 0
38.2451 0 0
38.3413 0 0
38.3413 0 0
38.4375 0 0
38.4375 0 0
38.5337 0 0
38.5337 0 0
38.6299 0 0
38.6299 0 0
38.7261 0 0
38.7261 0 0
38.8223 0 0
38.8223 0 0
38.9185 0 0
38.9185 0 0
39.0146 0 0
39.0146 0 0
39.1108 0 0
39.1108 0 0
39.207 0 0
39.207 0 0
39.3032 0 0
39.3032 0 0
39.3994 0 0
39.3994 0 0
39.4956 0 0
39.4956 0 0
39.5918 0 0
39.5918 0 0
39.688 0 0
39.688 0 0
39.7842 0 0
39.7842 0 0
39.8804 0 0
39.8804 0 0
39.9766 0 0
39.9766 0 0
40.0728 0 0
40.0728 0 0
40.1689 0 0
40.1689 0 0
40.2651 0 0
40.2651 0 0
40.3613 0 0
40.3613 0 0
40.4575 0 0
40.4575 0 0
40.5537 0 0
40.5537 0 0
40.6499 0 0
40.6499 0 0
40.7461 0 0
40.7461 0 0
40.8423 0 0
40.8423 0 0
40.9385 0 0
40.9385 0 0
41.0347 0 0
41.0347 0 0
41.1309 0 0
41.1309 0 0
41.2271 0 0
41.2271 0 0
[...]
POINT_DATA 2048
SCALARS solution_0 double 1
LOOKUP_TABLE default
0.0139129 0.0292702 0.0292702 0.0395319 0.0395319 0.0368471 0.0368471 0.0348666 0.0348666 0.0333536 0.0333536 0.0321923 0.0321923 0.0313079 0.0313079 0.0306639 0.0306639 0.0302368 0.0302368 0.0299819 0.0299819 0.0298135 0.0298135 0.0296158 0.0296158 0.0292757 0.0292757 0.0287173 0.0287173 0.0279203 0.0279203 0.0269173 0.0269173 0.0257771 0.0257771 0.0245822 0.0245822 0.0234099 0.0234099 0.0223207 0.0223207 0.0213529 0.0213529 0.0205246 0.0205246 0.019837 0.019837 0.0192803 0.0192803 0.0188382 0.0188382 0.0184917 0.0184917 0.0182224 0.0182224 0.0180135 0.0180135 0.0178506 0.0178506 0.0177221 0.0177221 0.0176191 0.0176191 0.0175347 0.0175347 0.0174637 0.0174637 0.0174026 0.0174026 0.0173486 0.0173486 0.0173 0.0173 0.0172555 0.0172555 0.017214 0.017214 0.0171752 0.0171752 0.0171384 0.0171384 0.0171035 0.0171035 0.0170702 0.0170702 0.0170384 0.0170384 0.0170079 0.0170079 0.0169787 0.0169787 0.0169507 0.0169507 0.0169239 0.0169239 0.0168982 0.0168982 0.0168735 0.0168735 0.0168499 0.0168499 0.0168273 0.0168273 0.0168057 0.0168057 0.016785 0.016785 0.0167652 0.0167652 0.0167464 0.0167464 0.0167284 0.0167284 0.0167113 0.0167113 0.016695 0.016695 0.0166796 0.0166796 0.016665 0.016665 0.0166511 0.0166511 0.0166381 0.0166381 0.0166258 0.0166258 0.0166143 0.0166143 0.0166035 0.0166035 0.0165934 0.0165934 0.0165841 0.0165841 0.0165755 0.0165755 0.0165676 0.0165676 0.0165604 0.0165604 0.0165539 0.0165539 0.0165481 0.0165481 0.0165429 0.0165429 0.0165384 0.0165384 0.0165346 0.0165346 0.0165314 0.0165314 0.0165289 0.0165289 0.016527 0.016527 0.0165258 0.0165258 0.0165252 0.0165252 0.0165252 0.0165252 0.0165259 0.0165259 0.0165272 0.0165272 0.0165291 0.0165291 0.0165316 0.0165316 0.0165348 0.0165348 0.0165386 0.0165386 0.0165429 0.0165429 0.0165479 0.0165479 0.0165535 0.0165535 0.0165598 0.0165598 0.0165666 0.0165666 0.016574 0.016574 0.0165821 0.0165821 0.0165907 0.0165907 0.0165999 0.0165999 0.0166098 0.0166098 0.0166202 0.0166202 0.0166313 0.0166313 0.0166429 0.0166429 0.0166552 0.0166552 0.0166681 0.0166681 0.0166815 0.0166815 0.0166956 0.0166956 0.0167103 0.0167103 0.0167256 0.0167256 0.0167415 0.0167415 0.016758 0.016758 0.0167751 0.0167751 0.0167928 0.0167928 0.0168112 0.0168112 0.0168301 0.0168301 0.0168497 0.0168497 0.0168699 0.0168699 0.0168907 0.0168907 0.0169121 0.0169121 0.0169342 0.0169342 0.0169568 0.0169568 0.0169802 0.0169802 0.0170041 0.0170041 0.0170287 0.0170287 0.0170539 0.0170539 0.0170798 0.0170798 0.0171063 0.0171063 0.0171334 0.0171334 0.0171612 0.0171612 0.0171897 0.0171897 0.0172188 0.0172188 0.0172485 0.0172485 0.017279 0.017279 0.0173101 0.0173101 0.0173419 0.0173419 0.0173743 0.0173743 0.0174074 0.0174074 0.0174412 0.0174412 0.0174757 0.0174757 0.0175109 0.0175109 0.0175468 0.0175468 0.0175834 0.0175834 0.0176207 0.0176207 0.0176587 0.0176587 0.0176975 0.0176975 0.0177369 0.0177369 0.0177771 0.0177771 0.017818 0.017818 0.0178596 0.0178596 0.017902 0.017902 0.0179452 0.0179452 0.0179891 0.0179891 0.0180337 0.0180337 0.0180791 0.0180791 0.0181253 0.0181253 0.0181723 0.0181723 0.0182201 0.0182201 0.0182687 0.0182687 0.018318 0.018318 0.0183682 0.0183682 0.0184192 0.0184192 0.018471 0.018471 0.0185236 0.0185236 0.0185771 0.0185771 0.0186314 0.0186314 0.0186866 0.0186866 0.0187426 0.0187426 0.0187995 0.0187995 0.0188573 0.0188573 0.018916 0.018916 0.0189755 0.0189755 0.019036 0.019036 0.0190974 0.0190974 0.0191597 0.0191597 0.0192229 0.0192229 0.0192871 0.0192871 0.0193522 0.0193522 0.0194183 0.0194183 0.0194854 0.0194854 0.0195534 0.0195534 0.0196224 0.0196224 0.0196925 0.0196925 0.0197635 0.0197635 0.0198356 0.0198356 0.0199087 0.0199087 0.0199829 0.0199829 0.0200581 0.0200581 0.0201344 0.0201344 0.0202118 0.0202118 0.0202903 0.0202903 0.0203699 0.0203699 0.0204507 0.0204507 0.0205325 0.0205325 0.0206156 0.0206156 0.0206998 0.0206998 0.0207851 0.0207851 0.0208717 0.0208717 0.0209595 0.0209595 0.0210485 0.0210485 0.0211388 0.0211388 0.0212303 0.0212303 0.0213231 0.0213231 0.0214172 0.0214172 0.0215126 0.0215126 0.0216093 0.0216093 0.0217074 0.0217074 0.0218069 0.0218069 0.0219077 0.0219077 0.02201 0.02201 0.0221136 0.0221136 0.0222187 0.0222187 0.0223253 0.0223253 0.0224334 0.0224334 0.022543 0.022543 0.0226541 0.0226541 0.0227667 0.0227667 0.022881 0.022881 0.0229969 0.0229969 0.0231143 0.0231143 0.0232335 0.0232335 0.0233543 0.0233543 0.0234769 0.0234769 0.0236011 0.0236011 0.0237272 0.0237272 0.023855 0.023855 0.0239847 0.0239847 0.0241163 0.0241163 0.0242497 0.0242497 0.0243851 0.0243851 0.0245224 0.0245224 0.0246618 0.0246618 0.0248031 0.0248031 0.0249466 0.0249466 0.0250922 0.0250922 0.0252399 0.0252399 0.0253898 0.0253898 0.025542 0.025542 0.0256965 0.0256965 0.0258533 0.0258533 0.0260125 0.0260125 0.0261741 0.0261741 0.0263383 0.0263383 0.026505 0.026505 0.0266743 0.0266743 0.0268462 0.0268462 0.0270209 0.0270209 0.0271984 0.0271984 0.0273787 0.0273787 0.027562 0.027562 0.0277483 0.0277483 0.0279376 0.0279376 0.0281301 0.0281301 0.0283259 0.0283259 0.0285249 0.0285249 0.0287274 0.0287274 0.0289333 0.0289333 0.0291429 0.0291429 0.0293561 0.0293561 0.0295731 0.0295731 0.029794 0.029794 0.030019 0.030019 0.030248 0.030248 0.0304813 0.0304813 0.030719 0.030719 0.0309612 0.0309612 0.031208 0.031208 0.0314596 0.0314596 0.0317162 0.0317162 0.0319778 0.0319778 0.0322446 0.0322446 0.0325169 0.0325169 0.0327947 0.0327947 0.0330782 0.0330782 0.0333678 0.0333678 0.0336634 0.0336634 0.0339654 0.0339654 0.0342739 0.0342739 0.0345891 0.0345891 0.0349114 0.0349114 0.0352408 0.0352408 0.0355777 0.0355777 0.0359223 0.0359223 0.0362748 0.0362748 0.0366356 0.0366356 0.0370048 0.0370048 0.0373829 0.0373829 0.03777 0.03777 0.0381664 0.0381664 0.0385726 0.0385726 0.0389888 0.0389888 0.0394153 0.0394153 0.0398525 0.0398525 0.0403007 0.0403007 0.0407604 0.0407604 0.0412318 0.0412318 0.0417154 0.0417154 0.0422115 0.0422115 0.0427207 0.0427207 0.0432431 0.0432431 0.0437794 0.0437794 0.04433 0.04433 0.0448952 0.0448952 0.0454755 0.0454755 0.0460714 0.0460714 0.0466834 0.0466834 0.0473119 0.0473119 0.0479575 0.0479575 0.0486205 0.0486205 0.0493016 0.0493016 0.0500013 0.0500013 0.0507199 0.0507199 0.0514582 0.0514582 0.0522165 0.0522165 0.0529954 0.0529954 0.0537955 0.0537955 0.0546172 0.0546172 0.0554611 0.0554611 0.0563278 0.0563278 0.0572177 0.0572177 0.0581314 0.0581314 0.0590693 0.0590693 0.0600321 0.0600321 0.0610203 0.0610203 0.0620342 0.0620342 0.0630744 0.0630744 0.0641415 0.0641415 0.0652357 0.0652357 0.0663577 0.0663577 0.0675077 0.0675077 0.0686863 0.0686863 0.0698938 0.0698938 0.0711305 0.0711305 0.0723969 0.0723969 0.0736931 0.0736931 0.0750194 0.0750194 0.0763762 0.0763762 0.0777635 0.0777635 0.0791816 0.0791816 0.0806305 0.0806305 0.0821104 0.0821104 0.0836211 0.0836211 0.0851628 0.0851628 0.0867353 0.0867353 0.0883384 0.0883384 0.089972 0.089972 0.0916357 0.0916357 0.0933292 0.0933292 0.0950521 0.0950521 0.096804 0.096804 0.0985841 0.0985841 0.100392 0.100392 0.102227 0.102227 0.104088 0.104088 0.105974 0.105974 0.107884 0.107884 0.109817 0.109817 0.111772 0.111772 0.113748 0.113748 0.115743 0.115743 0.117755 0.117755 0.119783 0.119783 0.121826 0.121826 0.12388 0.12388 0.125945 0.125945 0.128018 0.128018 0.130097 0.130097 0.132179 0.132179 0.134263 0.134263 0.136345 0.136345 0.138422 0.138422 0.140492 0.140492 0.142551 0.142551 0.144597 0.144597 0.146627 0.146627 0.148636 0.148636 0.150621 0.150621 0.152578 0.152578 0.154504 0.154504 0.156395 0.156395 0.158247 0.158247 0.160054 0.160054 0.161814 0.161814 0.163521 0.163521 0.165172 0.165172 0.16676 0.16676 0.168282 0.168282 0.169733 0.169733 0.171107 0.171107 0.1724 0.1724 0.173606 0.173606 0.17472 0.17472 0.175736 0.175736 0.17665 0.17665 0.177456 0.177456 0.178149 0.178149 0.178721 0.178721 0.17917 0.17917 0.179487 0.179487 0.179669 0.179669 0.179708 0.179708 0.179601 0.179601 0.17934 0.17934 0.178921 0.178921 0.178338 0.178338 0.177584 0.177584 0.176656 0.176656 0.175548 0.175548 0.174253 0.174253 0.172768 0.172768 0.171086 0.171086 0.169203 0.169203 0.167115 0.167115 0.164816 0.164816 0.162302 0.162302 0.159569 0.159569 0.156612 0.156612 0.153428 0.153428 0.150013 0.150013 0.146363 0.146363 0.142475 0.142475 0.138347 0.138347 0.133975 0.133975 0.129357 0.129357 0.12449 0.12449 0.119374 0.119374 0.114006 0.114006 0.108386 0.108386 0.102512 0.102512 0.0963836 0.0963836 0.090001 0.090001 0.0833644 0.0833644 0.0764742 0.0764742 0.0693314 0.0693314 0.0619374 0.0619374 0.0542938 0.0542938 0.0464028 0.0464028 0.0382669 0.0382669 0.029889 0.029889 0.0212726 0.0212726 0.0124213 0.0124213 0.00333932 0.00333932 -0.00596875 -0.00596875 -0.0154979 -0.0154979 -0.0252428 -0.0252428 -0.0351975 -0.0351975 -0.0453558 -0.0453558 -0.0557112 -0.0557112 -0.0662564 -0.0662564 -0.0769843 -0.0769843 -0.0878868 -0.0878868 -0.0989558 -0.0989558 -0.110183 -0.110183 -0.121559 -0.121559 -0.133075 -0.133075 -0.14472 -0.14472 -0.156487 -0.156487 -0.168363 -0.168363 -0.180338 -0.180338 -0.192402 -0.192402 -0.204543 -0.204543 -0.21675 -0.21675 -0.229012 -0.229012 -0.241317 -0.241317 -0.253652 -0.253652 -0.266005 -0.266005 -0.278364 -0.278364 -0.290717 -0.290717 -0.303051 -0.303051 -0.315353 -0.315353 -0.327611 -0.327611 -0.339811 -0.339811 -0.35194 -0.35194 -0.363986 -0.363986 -0.375936 -0.375936 -0.387777 -0.387777 -0.399497 -0.399497 -0.411081 -0.411081 -0.422518 -0.422518 -0.433796 -0.433796 -0.444901 -0.444901 -0.455823 -0.455823 -0.466547 -0.466547 -0.477064 -0.477064 -0.487361 -0.487361 -0.497428 -0.497428 -0.507252 -0.507252 -0.516824 -0.516824 -0.526132 -0.526132 -0.535167 -0.535167 -0.54392 -0.54392 -0.55238 -0.55238 -0.560538 -0.560538 -0.568387 -0.568387 -0.575918 -0.575918 -0.583123 -0.583123 -0.589995 -0.589995 -0.596528 -0.596528 -0.602713 -0.602713 -0.608547 -0.608547 -0.614023 -0.614023 -0.619137 -0.619137 -0.623883 -0.623883 -0.628259 -0.628259 -0.632261 -0.632261 -0.635885 -0.635885 -0.63913 -0.63913 -0.641994 -0.641994 -0.644475 -0.644475 -0.646573 -0.646573 -0.648287 -0.648287 -0.649617 -0.649617 -0.650565 -0.650565 -0.651131 -0.651131 -0.651318 -0.651318 -0.651127 -0.651127 -0.650562 -0.650562 -0.649625 -0.649625 -0.64832 -0.64832 -0.646652 -0.646652 -0.644625 -0.644625 -0.642243 -0.642243 -0.639514 -0.639514 -0.636442 -0.636442 -0.633033 -0.633033 -0.629295 -0.629295 -0.625235 -0.625235 -0.620859 -0.620859 -0.616176 -0.616176 -0.611193 -0.611193 -0.60592 -0.60592 -0.600364 -0.600364 -0.594534 -0.594534 -0.58844 -0.58844 -0.582091 -0.582091 -0.575496 -0.575496 -0.568666 -0.568666 -0.561609 -0.561609 -0.554337 -0.554337 -0.54686 -0.54686 -0.539187 -0.539187 -0.531329 -0.531329 -0.523297 -0.523297 -0.515101 -0.515101 -0.506752 -0.506752 -0.49826 -0.49826 -0.489636 -0.489636 -0.480891 -0.480891 -0.472034 -0.472034 -0.463077 -0.463077 -0.45403 -0.45403 -0.444903 -0.444903 -0.435707 -0.435707 -0.426451 -0.426451 -0.417145 -0.417145 -0.4078 -0.4078 -0.398424 -0.398424 -0.389029 -0.389029 -0.379622 -0.379622 -0.370213 -0.370213 -0.36081 -0.36081 -0.351424 -0.351424 -0.342061 -0.342061 -0.33273 -0.33273 -0.32344 -0.32344 -0.314198 -0.314198 -0.305011 -0.305011 -0.295887 -0.295887 -0.286832 -0.286832 -0.277854 -0.277854 -0.268958 -0.268958 -0.260152 -0.260152 -0.25144 -0.25144 -0.242828 -0.242828 -0.234322 -0.234322 -0.225927 -0.225927 -0.217646 -0.217646 -0.209486 -0.209486 -0.201449 -0.201449 -0.193539 -0.193539 -0.185761 -0.185761 -0.178117 -0.178117 -0.170611 -0.170611 -0.163245 -0.163245 -0.156021 -0.156021 -0.148942 -0.148942 -0.14201 -0.14201 -0.135226 -0.135226 -0.128592 -0.128592 -0.122109 -0.122109 -0.115778 -0.115778 -0.109599 -0.109599 -0.103573 -0.103573 -0.0977009 -0.0977009 -0.0919819 -0.0919819 -0.0864161 -0.0864161 -0.0810031 -0.0810031 -0.0757424 -0.0757424 -0.0706333 -0.0706333 -0.0656748 -0.0656748 -0.0608659 -0.0608659 -0.0562053 -0.0562053 -0.0516916 -0.0516916 -0.0473234 -0.0473234 -0.0430989 -0.0430989 -0.0390165 -0.0390165 -0.0350741 -0.0350741 -0.0312698 -0.0312698 -0.0276014 -0.0276014 -0.0240668 -0.0240668 -0.0206635 -0.0206635 -0.0173893 -0.0173893 -0.0142417 -0.0142417 -0.0112182 -0.0112182 -0.00831611 -0.00831611 -0.00553286 -0.00553286 -0.00286576 -0.00286576 -0.000312083 -0.000312083 0.00213092 0.00213092 0.00446604 0.00446604 0.00669608 0.00669608 0.00882385 0.00882385 0.0108522 0.0108522 0.0127839 0.0127839 0.0146219 0.0146219 0.016369 0.016369 0.0180279 0.0180279 0.0196016 0.0196016 0.0210927 0.0210927 0.0225041 0.0225041 0.0238385 0.0238385 0.0250986 0.0250986 0.0262871 0.0262871 0.0274066 0.0274066 0.0284598 0.0284598 0.0294492 0.0294492 0.0303773 0.0303773 0.0312467 0.0312467 0.0320596 0.0320596 0.0328186 0.0328186 0.033526 0.033526 0.034184 0.034184 0.0347948 0.0347948 0.0353607 0.0353607 0.0358837 0.0358837 0.036366 0.036366 0.0368094 0.0368094 0.037216 0.037216 0.0375877 0.0375877 0.0379262 0.0379262 0.0382334 0.0382334 0.0385109 0.0385109 0.0387604 0.0387604 0.0389836 0.0389836 0.0391819 0.0391819 0.0393569 0.0393569 0.0395099 0.0395099 0.0396424 0.0396424 0.0397557 0.0397557 0.039851 0.039851 0.0399296 0.0399296 0.0399927 0.0399927 0.0400412 0.0400412 0.0400764 0.0400764 0.0400992 0.0400992 0.0401106 0.0401106 0.0401114 0.0401114 0.0401027 0.0401027 0.0400852 0.0400852 0.0400596 0.0400596 0.0400269 0.0400269 0.0399876 0.0399876 0.0399424 0.0399424 0.0398919 0.0398919 0.0398369 0.0398369 0.0397777 0.0397777 0.039715 0.039715 0.0396492 0.0396492 0.0395808 0.0395808 0.0395102 0.0395102 0.0394378 0.0394378 0.0393641 0.0393641 0.0392892 0.0392892 0.0392137 0.0392137 0.0391377 0.0391377 0.0390616 0.0390616 0.0389855 0.0389855 0.0389098 0.0389098 0.0388346 0.0388346 0.0387601 0.0387601 0.0386866 0.0386866 0.0386141 0.0386141 0.0385428 0.0385428 0.0384729 0.0384729 0.0384044 0.0384044 0.0383374 0.0383374 0.0382721 0.0382721 0.0382085 0.0382085 0.0381467 0.0381467 0.0380866 0.0380866 0.0380285 0.0380285 0.0379723 0.0379723 0.037918 0.037918 0.0378656 0.0378656 0.0378152 0.0378152 0.0377668 0.0377668 0.0377204 0.0377204 0.0376759 0.0376759 0.0376333 0.0376333 0.0375927 0.0375927 0.037554 0.037554 0.0375173 0.0375173 0.0374823 0.0374823 0.0374492 0.0374492 0.0374179 0.0374179 0.0373884 0.0373884 0.0373606 0.0373606 0.0373345 0.0373345 0.0373101 0.0373101 0.0372872 0.0372872 0.037266 0.037266 0.0372462 0.0372462 0.0372279 0.0372279 0.0372111 0.0372111 0.0371956 0.0371956 0.0371815 0.0371815 0.0371687 0.0371687 0.0371572 0.0371572 0.0371468 0.0371468 0.0371376 0.0371376 0.0371296 0.0371296 0.0371226 0.0371226 0.0371166 0.0371166 0.0371117 0.0371117 0.0371077 0.0371077 0.0371045 0.0371045 0.0371023 0.0371023 0.0371009 0.0371009 0.0371003 0.0371003 0.0371004 0.0371004 0.0371013 0.0371013 0.0371029 0.0371029 0.0371051 0.0371051 0.0371079 0.0371079 0.0371113 0.0371113 0.0371152 0.0371152 0.0371197 0.0371197 0.0371247 0.0371247 0.0371301 0.0371301 0.037136 0.037136 0.0371423 0.0371423 0.037149 0.037149 0.0371561 0.0371561 0.0371635 0.0371635 0.0371712 0.0371712 0.0371792 0.0371792 0.0371875 0.0371875 0.0371961 0.0371961 0.0372049 0.0372049 0.0372139 0.0372139 0.0372231 0.0372231 0.0372325 0.0372325 0.0372421 0.0372421 0.0372518 0.0372518 0.0372617 0.0372617 0.0372717 0.0372717 0.0372818 0.0372818 0.037292 0.037292 0.0373024 0.0373024 0.0373128 0.0373128 0.0373232 0.0373232 0.0373338 0.0373338 0.0373444 0.0373444 0.037355 0.037355 0.0373657 0.0373657 0.0373763 0.0373763 0.0373871 0.0373871 0.0373978 0.0373978 0.0374085 0.0374085 0.0374192 0.0374192 0.0374299 0.0374299 0.0374407 0.0374407 0.0374513 0.0374513 0.037462 0.037462 0.0374726 0.0374726 0.0374832 0.0374832 0.0374938 0.0374938 0.0375043 0.0375043 0.0375148 0.0375148 0.0375253 0.0375253 0.0375357 0.0375357 0.037546 0.037546 0.0375563 0.0375563 0.0375665 0.0375665 0.0375767 0.0375767 0.0375868 0.0375868 0.0375968 0.0375968 0.0376068 0.0376068 0.0376167 0.0376167 0.0376265 0.0376265 0.0376363 0.0376363 0.037646 0.037646 0.0376556 0.0376556 0.0376652 0.0376652 0.0376746 0.0376746 0.037684 0.037684 0.0376934 0.0376934 0.0377026 0.0377026 0.0377118 0.0377118 0.0377209 0.0377209 0.0377299 0.0377299 0.0377389 0.0377389 0.0377477 0.0377477 0.0377565 0.0377565 0.0377652 0.0377652 0.0377738 0.0377738 0.0377824 0.0377824 0.0377909 0.0377909 0.0377993 0.0377993 0.0378076 0.0378076 0.0378158 0.0378158 0.037824 0.037824 0.0378321 0.0378321 0.0378401 0.0378401 0.037848 0.037848 0.0378559 0.0378559 0.0378637 0.0378637 0.0378714 0.0378714 0.037879 0.037879 0.0378866 0.0378866 0.0378941 0.0378941 0.0379015 0.0379015 0.0379088 0.0379088 0.0379161 0.0379161 0.0379233 0.0379233 0.0379304 0.0379304 0.0379374 0.0379374 0.0379444 0.0379444 0.0379513 0.0379513 0.0379582 0.0379582 0.0379649 0.0379649 0.0379716 0.0379716 0.0379783 0.0379783 0.0379849 0.0379849 0.0379914 0.0379914 0.0379978 0.0379978 0.0380042 0.0380042 0.0380105 0.0380105 0.0380167 0.0380167 0.0380229 0.0380229 0.038029 0.038029 0.0380351 0.0380351 0.0380411 0.0380411 0.038047 0.038047 0.0380529 0.0380529 0.0380587 0.0380587 0.0380645 0.0380645 0.0380702 0.0380702 0.0380758 0.0380758 0.0380814 0.0380814 0.038087 0.038087 0.0380924 0.0380924 0.0380979 0.0380979 0.0381032 0.0381032 0.0381085 0.0381085 0.0381138 0.0381138 0.038119 0.038119 0.0381241 0.0381241 0.0381292 0.0381292 0.0381343 0.0381343 0.0381393 0.0381393 0.0381442 0.0381442 0.0381491 0.0381491 0.038154 0.038154 0.0381588 0.0381588 0.0381636 0.0381636 0.0381683 0.0381683 0.0381729 0.0381729 0.0381775 0.0381775 0.0381821 0.0381821 0.0381866 0.0381866 0.0381911 0.0381911 0.0381956 0.0381956 0.0382 0.0382 0.0382043 0.0382043 0.0382086 0.0382086 0.0382129 0.0382129 0.0382171 0.0382171 0.0382213 0.0382213 0.0382255 0.0382255 0.0382296 0.0382296 0.0382336 0.0382336 0.0382377 0.0382377 0.0382417 0.0382417 0.0382456 0.0382456 0.0382495 0.0382495 0.0382534 0.0382534 0.0382573 0.0382573 0.0382611 0.0382611 0.0382648 0.0382648 0.0382686 0.0382686 0.0382723 0.0382723 0.0382759 0.0382759 0.0382796 0.0382796 0.0382832 0.0382832 0.0382867 0.0382867 0.0382903 0.0382903 0.0382938 0.0382938 0.0382973 0.0382973 0.0383007 0.0383007 0.0383041 0.0383041 0.0383075 0.0383075 0.0383108 0.0383108 0.0383141 0.0383141 0.0383174 0.0383174 0.0383207 0.0383207 0.0383239 0.0383239 0.0383271 0.0383271 0.0383303 0.0383303 0.0383335 0.0383335 0.0383366 0.0383366 0.0383397 0.0383397 0.0383427 0.0383427 0.0383458 0.0383458 0.0383488 0.0383488 0.0383518 0.0383518 0.0383548 0.0383548 0.0383577 0.0383577 0.0383606 0.0383606 0.0383635 0.0383635 0.0383664 0.0383664 0.0383692 0.0383692 0.0383721 0.0383721 0.0383748 0.0383748 0.0383776 0.0383776 0.0383804 0.0383804 0.0383831 0.0383831 0.0383858 0.0383858 0.0383885 0.0383885 0.0383912 0.0383912 0.0383938 0.0383938 0.0383964 0.0383964 0.038399 0.038399 0.0384016 0.0384016 0.0384042 0.0384042 0.0384067 0.0384067 0.0384093 0.0384093 0.0384118 0.0384118 0.0384143 0.0384143 0.0384167 0.0384167 0.0384192 0.0384192 0.0384216 0.0384216 0.038424 0.038424 0.0384264 0.0384264 0.0384288 0.0384288 0.0384311 0.0384311 0.0384335 0.0384335 0.0384358 0.0384358 0.0384381 0.0384381 0.0384404 0.0384404 0.0384427 0.0384427 0.0384449 0.0384449 0.0384472 0.0384472 0.0384494 0.0384494 0.0384516 0.0384516 0.0384538 0.0384538 0.038456 0.038456 0.0384581 0.0384581 0.0384603 0.0384603 0.0384624 0.0384624 0.0384645 0.0384645 0.0384666 0.0384666 0.0384687 0.0384687 0.0384708 0.0384708 0.0384729 0.0384729 0.0384749 0.0384749 0.0384769 0.0384769 0.038479 0.038479 0.038481 0.038481 0.038483 0.038483 0.0384849 0.0384849 0.0384869 0.0384869 0.0384889 0.0384889 0.0384908 0.0384908 0.0384927 0.0384927 0.0384946 0.0384946 0.0384965 0.0384965 0.0384984 0.0384984 0.0385003 0.0385003 0.0385022 0.0385022 0.038504 0.038504 0.0385058 0.0385058 0.0385077 0.0385077 0.0385095 0.0385095 0.0385113 0.0385113 0.0385131 0.0385131 0.0385149 0.0385149 0.0385167 0.0385167 0.0385185 0.0385185 0.0385203 0.0385203 0.038522 0.038522 0.0385238 0.0385238 0.0385256 0.0385256 0.0385274 0.0385274 0.0385292 0.0385292 0.038531 0.038531 0.0385328 0.0385328 0.0385346 0.0385346 0.0385364 0.0385364 0.0385383 0.0385383 0.0385401 0.0385401 0.0385419 0.0385419 0.0385437 0.0385437 0.0385455 0.0385455