# vtk DataFile Version 3.0
#This file was generated by the deal.II library on 2020/9/1 at 14:40:52
ASCII
DATASET UNSTRUCTURED_GRID

POINTS 2048 double
1.5 0 0
1.59619 0 0
1.59619 0 0
1.69238 0 0
1.69238 0 0
1.78857 0 0
1.78857 0 0
1.88477 0 0
1.88477 0 0
1.98096 0 0
1.98096 0 0
2.07715 0 0
2.07715 0 0
2.17334 0 0
2.17334 0 0
2.26953 0 0
2.26953 0 0
2.36572 0 0
2.36572 0 0
2.46191 0 0
2.46191 0 0
2.55811 0 0
2.55811 0 0
2.6543 0 0
2.6543 0 0
2.75049 0 0
2.75049 0 0
2.84668 0 0
2.84668 0 0
2.94287 0 0
2.94287 0 0
3.03906 0 0
3.03906 0 0
3.13525 0 0
3.13525 0 0
3.23145 0 0
3.23145 0 0
3.32764 0 0
3.32764 0 0
3.42383 0 0
3.42383 0 0
3.52002 0 0
3.52002 0 0
3.61621 0 0
3.61621 0 0
3.7124 0 0
3.7124 0 0
3.80859 0 0
3.80859 0 0
3.90479 0 0
3.90479 0 0
4.00098 0 0
4.00098 0 0
4.09717 0 0
4.09717 0 0
4.19336 0 0
4.19336 0 0
4.28955 0 0
4.28955 0 0
4.38574 0 0
4.38574 0 0
4.48193 0 0
4.48193 0 0
4.57812 0 0
4.57812 0 0
4.67432 0 0
4.67432 0 0
4.77051 0 0
4.77051 0 0
4.8667 0 0
4.8667 0 0
4.96289 0 0
4.96289 0 0
5.05908 0 0
5.05908 0 0
5.15527 0 0
5.15527 0 0
5.25146 0 0
5.25146 0 0
5.34766 0 0
5.34766 0 0
5.44385 0 0
5.44385 0 0
5.54004 0 0
5.54004 0 0
5.63623 0 0
5.63623 0 0
5.73242 0 0
5.73242 0 0
5.82861 0 0
5.82861 0 0
5.9248 0 0
5.9248 0 0
6.021 0 0
6.021 0 0
6.11719 0 0
6.11719 0 0
6.21338 0 0
6.21338 0 0
6.30957 0 0
6.30957 0 0
6.40576 0 0
6.40576 0 0
6.50195 0 0
6.50195 0 0
6.59814 0 0
6.59814 0 0
6.69434 0 0
6.69434 0 0
6.79053 0 0
6.79053 0 0
6.88672 0 0
6.88672 0 0
6.98291 0 0
6.98291 0 0
7.0791 0 0
7.0791 0 0
7.17529 0 0
7.17529 0 0
7.27148 0 0
7.27148 0 0
7.36768 0 0
7.36768 0 0
7.46387 0 0
7.46387 0 0
7.56006 0 0
7.56006 0 0
7.65625 0 0
7.65625 0 0
7.75244 0 0
7.75244 0 0
7.84863 0 0
7.84863 0 0
7.94482 0 0
7.94482 0 0
8.04102 0 0
8.04102 0 0
8.13721 0 0
8.13721 0 0
8.2334 0 0
8.2334 0 0
8.32959 0 0
8.32959 0 0
8.42578 0 0
8.42578 0 0
8.52197 0 0
8.52197 0 0
8.61816 0 0
8.61816 0 0
8.71436 0 0
8.71436 0 0
8.81055 0 0
8.81055 0 0
8.90674 0 0
8.90674 0 0
9.00293 0 0
9.00293 0 0
9.09912 0 0
9.09912 0 0
9.19531 0 0
9.19531 0 0
9.2915 0 0
9.2915 0 0
9.3877 0 0
9.3877 0 0
9.48389 0 0
9.48389 0 0
9.58008 0 0
9.58008 0 0
9.67627 0 0
9.67627 0 0
9.77246 0 0
9.77246 0 0
9.86865 0 0
9.86865 0 0
9.96484 0 0
9.96484 0 0
10.061 0 0
10.061 0 0
10.1572 0 0
10.1572 0 0
10.2534 0 0
10.2534 0 0
10.3496 0 0
10.3496 0 0
10.4458 0 0
10.4458 0 0
10.542 0 0
10.542 0 0
10.6382 0 0
10.6382 0 0
10.7344 0 0
10.7344 0 0
10.8306 0 0
10.8306 0 0
10.9268 0 0
10.9268 0 0
11.0229 0 0
11.0229 0 0
11.1191 0 0
11.1191 0 0
11.2153 0 0
11.2153 0 0
11.3115 0 0
11.3115 0 0
11.4077 0 0
11.4077 0 0
11.5039 0 0
11.5039 0 0
11.6001 0 0
11.6001 0 0
11.6963 0 0
11.6963 0 0
11.7925 0 0
11.7925 0 0
11.8887 0 0
11.8887 0 0
11.9849 0 0
11.9849 0 0
12.0811 0 0
12.0811 0 0
12.1772 0 0
12.1772 0 0
12.2734 0 0
12.2734 0 0
12.3696 0 0
12.3696 0 0
12.4658 0 0
12.4658 0 0
12.562 0 0
12.562 0 0
12.6582 0 0
12.6582 0 0
12.7544 0 0
12.7544 0 0
12.8506 0 0
12.8506 0 0
12.9468 0 0
12.9468 0 0
13.043 0 0
13.043 0 0
13.1392 0 0
13.1392 0 0
13.2354 0 0
13.2354 0 0
13.3315 0 0
13.3315 0 0
13.4277 0 0
13.4277 0 0
13.5239 0 0
13.5239 0 0
13.6201 0 0
13.6201 0 0
13.7163 0 0
13.7163 0 0
13.8125 0 0
13.8125 0 0
13.9087 0 0
13.9087 0 0
14.0049 0 0
14.0049 0 0
14.1011 0 0
14.1011 0 0
14.1973 0 0
14.1973 0 0
14.2935 0 0
14.2935 0 0
14.3896 0 0
14.3896 0 0
14.4858 0 0
14.4858 0 0
14.582 0 0
14.582 0 0
14.6782 0 0
14.6782 0 0
14.7744 0 0
14.7744 0 0
14.8706 0 0
14.8706 0 0
14.9668 0 0
14.9668 0 0
15.063 0 0
15.063 0 0
15.1592 0 0
15.1592 0 0
15.2554 0 0
15.2554 0 0
15.3516 0 0
15.3516 0 0
15.4478 0 0
15.4478 0 0
15.5439 0 0
15.5439 0 0
15.6401 0 0
15.6401 0 0
15.7363 0 0
15.7363 0 0
15.8325 0 0
15.8325 0 0
15.9287 0 0
15.9287 0 0
16.0249 0 0
16.0249 0 0
16.1211 0 0
16.1211 0 0
16.2173 0 0
16.2173 0 0
16.3135 0 0
16.3135 0 0
16.4097 0 0
16.4097 0 0
16.5059 0 0
16.5059 0 0
16.6021 0 0
16.6021 0 0
16.6982 0 0
16.6982 0 0
16.7944 0 0
16.7944 0 0
16.8906 0 0
16.8906 0 0
16.9868 0 0
16.9868 0 0
17.083 0 0
17.083 0 0
17.1792 0 0
17.1792 0 0
17.2754 0 0
17.2754 0 0
17.3716 0 0
17.3716 0 0
17.4678 0 0
17.4678 0 0
17.564 0 0
17.564 0 0
17.6602 0 0
17.6602 0 0
17.7563 0 0
17.7563 0 0
17.8525 0 0
17.8525 0 0
17.9487 0 0
17.9487 0 0
18.0449 0 0
18.0449 0 0
18.1411 0 0
18.1411 0 0
18.2373 0 0
18.2373 0 0
18.3335 0 0
18.3335 0 0
18.4297 0 0
18.4297 0 0
18.5259 0 0
18.5259 0 0
18.6221 0 0
18.6221 0 0
18.7183 0 0
18.7183 0 0
18.8145 0 0
18.8145 0 0
18.9106 0 0
18.9106 0 0
19.0068 0 0
19.0068 0 0
19.103 0 0
19.103 0 0
19.1992 0 0
19.1992 0 0
19.2954 0 0
19.2954 0 0
19.3916 0 0
19.3916 0 0
19.4878 0 0
19.4878 0 0
19.584 0 0
19.584 0 0
19.6802 0 0
19.6802 0 0
19.7764 0 0
19.7764 0 0
19.8726 0 0
19.8726 0 0
19.9688 0 0
19.9688 0 0
20.0649 0 0
20.0649 0 0
20.1611 0 0
20.1611 0 0
20.2573 0 0
20.2573 0 0
20.3535 0 0
20.3535 0 0
20.4497 0 0
20.4497 0 0
20.5459 0 0
20.5459 0 0
20.6421 0 0
20.6421 0 0
20.7383 0 0
20.7383 0 0
20.8345 0 0
20.8345 0 0
20.9307 0 0
20.9307 0 0
21.0269 0 0
21.0269 0 0
21.123 0 0
21.123 0 0
21.2192 0 0
21.2192 0 0
21.3154 0 0
21.3154 0 0
21.4116 0 0
21.4116 0 0
21.5078 0 0
21.5078 0 0
21.604 0 0
21.604 0 0
21.7002 0 0
21.7002 0 0
21.7964 0 0
21.7964 0 0
21.8926 0 0
21.8926 0 0
21.9888 0 0
21.9888 0 0
22.085 0 0
22.085 0 0
22.1812 0 0
22.1812 0 0
22.2773 0 0
22.2773 0 0
22.3735 0 0
22.3735 0 0
22.4697 0 0
22.4697 0 0
22.5659 0 0
22.5659 0 0
22.6621 0 0
22.6621 0 0
22.7583 0 0
22.7583 0 0
22.8545 0 0
22.8545 0 0
22.9507 0 0
22.9507 0 0
23.0469 0 0
23.0469 0 0
23.1431 0 0
23.1431 0 0
23.2393 0 0
23.2393 0 0
23.3354 0 0
23.3354 0 0
23.4316 0 0
23.4316 0 0
23.5278 0 0
23.5278 0 0
23.624 0 0
23.624 0 0
23.7202 0 0
23.7202 0 0
23.8164 0 0
23.8164 0 0
23.9126 0 0
23.9126 0 0
24.0088 0 0
24.0088 0 0
24.105 0 0
24.105 0 0
24.2012 0 0
24.2012 0 0
24.2974 0 0
24.2974 0 0
24.3936 0 0
24.3936 0 0
24.4897 0 0
24.4897 0 0
24.5859 0 0
24.5859 0 0
24.6821 0 0
24.6821 0 0
24.7783 0 0
24.7783 0 0
24.8745 0 0
24.8745 0 0
24.9707 0 0
24.9707 0 0
25.0669 0 0
25.0669 0 0
25.1631 0 0
25.1631 0 0
25.2593 0 0
25.2593 0 0
25.3555 0 0
25.3555 0 0
25.4517 0 0
25.4517 0 0
25.5479 0 0
25.5479 0 0
25.644 0 0
25.644 0 0
25.7402 0 0
25.7402 0 0
25.8364 0 0
25.8364 0 0
25.9326 0 0
25.9326 0 0
26.0288 0 0
26.0288 0 0
26.125 0 0
26.125 0 0
26.2212 0 0
26.2212 0 0
26.3174 0 0
26.3174 0 0
26.4136 0 0
26.4136 0 0
26.5098 0 0
26.5098 0 0
26.606 0 0
26.606 0 0
26.7021 0 0
26.7021 0 0
26.7983 0 0
26.7983 0 0
26.8945 0 0
26.8945 0 0
26.9907 0 0
26.9907 0 0
27.0869 0 0
27.0869 0 0
27.1831 0 0
27.1831 0 0
27.2793 0 0
27.2793 0 0
27.3755 0 0
27.3755 0 0
27.4717 0 0
27.4717 0 0
27.5679 0 0
27.5679 0 0
27.6641 0 0
27.6641 0 0
27.7603 0 0
27.7603 0 0
27.8564 0 0
27.8564 0 0
27.9526 0 0
27.9526 0 0
28.0488 0 0
28.0488 0 0
28.145 0 0
28.145 0 0
28.2412 0 0
28.2412 0 0
28.3374 0 0
28.3374 0 0
28.4336 0 0
28.4336 0 0
28.5298 0 0
28.5298 0 0
28.626 0 0
28.626 0 0
28.7222 0 0
28.7222 0 0
28.8184 0 0
28.8184 0 0
28.9146 0 0
28.9146 0 0
29.0107 0 0
29.0107 0 0
29.1069 0 0
29.1069 0 0
29.2031 0 0
29.2031 0 0
29.2993 0 0
29.2993 0 0
29.3955 0 0
29.3955 0 0
29.4917 0 0
29.4917 0 0
29.5879 0 0
29.5879 0 0
29.6841 0 0
29.6841 0 0
29.7803 0 0
29.7803 0 0
29.8765 0 0
29.8765 0 0
29.9727 0 0
29.9727 0 0
30.0688 0 0
30.0688 0 0
30.165 0 0
30.165 0 0
30.2612 0 0
30.2612 0 0
30.3574 0 0
30.3574 0 0
30.4536 0 0
30.4536 0 0
30.5498 0 0
30.5498 0 0
30.646 0 0
30.646 0 0
30.7422 0 0
30.7422 0 0
30.8384 0 0
30.8384 0 0
30.9346 0 0
30.9346 0 0
31.0308 0 0
31.0308 0 0
31.127 0 0
31.127 0 0
31.2231 0 0
31.2231 0 0
31.3193 0 0
31.3193 0 0
31.4155 0 0
31.4155 0 0
31.5117 0 0
31.5117 0 0
31.6079 0 0
31.6079 0 0
31.7041 0 0
31.7041 0 0
31.8003 0 0
31.8003 0 0
31.8965 0 0
31.8965 0 0
31.9927 0 0
31.9927 0 0
32.0889 0 0
32.0889 0 0
32.1851 0 0
32.1851 0 0
32.2812 0 0
32.2812 0 0
32.3774 0 0
32.3774 0 0
32.4736 0 0
32.4736 0 0
32.5698 0 0
32.5698 0 0
32.666 0 0
32.666 0 0
32.7622 0 0
32.7622 0 0
32.8584 0 0
32.8584 0 0
32.9546 0 0
32.9546 0 0
33.0508 0 0
33.0508 0 0
33.147 0 0
33.147 0 0
33.2432 0 0
33.2432 0 0
33.3394 0 0
33.3394 0 0
33.4355 0 0
33.4355 0 0
33.5317 0 0
33.5317 0 0
33.6279 0 0
33.6279 0 0
33.7241 0 0
33.7241 0 0
33.8203 0 0
33.8203 0 0
33.9165 0 0
33.9165 0 0
34.0127 0 0
34.0127 0 0
34.1089 0 0
34.1089 0 0
34.2051 0 0
34.2051 0 0
34.3013 0 0
34.3013 0 0
34.3975 0 0
34.3975 0 0
34.4937 0 0
34.4937 0 0
34.5898 0 0
34.5898 0 0
34.686 0 0
34.686 0 0
34.7822 0 0
34.7822 0 0
34.8784 0 0
34.8784 0 0
34.9746 0 0
34.9746 0 0
35.0708 0 0
35.0708 0 0
35.167 0 0
35.167 0 0
35.2632 0 0
35.2632 0 0
35.3594 0 0
35.3594 0 0
35.4556 0 0
35.4556 0 0
35.5518 0 0
35.5518 0 0
35.6479 0 0
35.6479 0 0
35.7441 0 0
35.7441 0 0
35.8403 0 0
35.8403 0 0
35.9365 0 0
35.9365 0 0
36.0327 0 0
36.0327 0 0
36.1289 0 0
36.1289 0 0
36.2251 0 0
36.2251 0 0
36.3213 0 0
36.3213 0 0
36.4175 0 0
36.4175 0 0
36.5137 0 0
36.5137 0 0
36.6099 0 0
36.6099 0 0
36.7061 0 0
36.7061 0 0
36.8022 0 0
36.8022 0 0
36.8984 0 0
36.8984 0 0
36.9946 0 0
36.9946 0 0
37.0908 0 0
37.0908 0 0
37.187 0 0
37.187 0 0
37.2832 0 0
37.2832 0 0
37.3794 0 0
37.3794 0 0
37.4756 0 0
37.4756 0 0
37.5718 0 0
37.5718 0 0
37.668 0 0
37.668 0 0
37.7642 0 0
37.7642 0 0
37.8604 0 0
37.8604 0 0
37.9565 0 0
37.9565 0 0
38.0527 0 0
38.0527 0 0
38.1489 0 0
38.1489 0 0
38.2451 0 0
38.2451 0 0
38.3413 0 0
38.3413 0 0
38.4375 0 0
38.4375 0 0
38.5337 0 0
38.5337 0 0
38.6299 0 0
38.6299 0 0
38.7261 0 0
38.7261 0 0
38.8223 0 0
38.8223 0 0
38.9185 0 0
38.9185 0 0
39.0146 0 0
39.0146 0 0
39.1108 0 0
39.1108 0 0
39.207 0 0
39.207 0 0
39.3032 0 0
39.3032 0 0
39.3994 0 0
39.3994 0 0
39.4956 0 0
39.4956 0 0
39.5918 0 0
39.5918 0 0
39.688 0 0
39.688 0 0
39.7842 0 0
39.7842 0 0
39.8804 0 0
39.8804 0 0
39.9766 0 0
39.9766 0 0
40.0728 0 0
40.0728 0 0
40.1689 0 0
40.1689 0 0
40.2651 0 0
40.2651 0 0
40.3613 0 0
40.3613 0 0
40.4575 0 0
40.4575 0 0
40.5537 0 0
40.5537 0 0
40.6499 0 0
40.6499 0 0
40.7461 0 0
40.7461 0 0
40.8423 0 0
40.8423 0 0
40.9385 0 0
40.9385 0 0
41.0347 0 0
41.0347 0 0
41.1309 0 0
41.1309 0 0
41.2271 0 0
41.2271 0 0
[...]
POINT_DATA 2048
SCALARS solution_0 double 1
LOOKUP_TABLE default
0.0577101 0.0607218 0.0607218 0.063744 0.063744 0.0667867 0.0667867 0.0698585 0.0698585 0.0729662 0.0729662 0.0761159 0.0761159 0.0793128 0.0793128 0.0825612 0.0825612 0.085865 0.085865 0.0892275 0.0892275 0.0926516 0.0926516 0.0961397 0.0961397 0.0996941 0.0996941 0.103316 0.103316 0.107008 0.107008 0.11077 0.11077 0.114604 0.114604 0.118509 0.118509 0.122486 0.122486 0.126535 0.126535 0.130656 0.130656 0.134848 0.134848 0.139109 0.139109 0.143439 0.143439 0.147835 0.147835 0.152297 0.152297 0.156821 0.156821 0.161404 0.161404 0.166045 0.166045 0.170738 0.170738 0.175481 0.175481 0.18027 0.18027 0.185099 0.185099 0.189963 0.189963 0.194858 0.194858 0.199778 0.199778 0.204716 0.204716 0.209666 0.209666 0.21462 0.21462 0.219572 0.219572 0.224513 0.224513 0.229434 0.229434 0.234328 0.234328 0.239185 0.239185 0.243996 0.243996 0.24875 0.24875 0.253436 0.253436 0.258045 0.258045 0.262564 0.262564 0.266983 0.266983 0.271288 0.271288 0.275468 0.275468 0.27951 0.27951 0.283401 0.283401 0.287127 0.287127 0.290674 0.290674 0.294029 0.294029 0.297178 0.297178 0.300105 0.300105 0.302796 0.302796 0.305237 0.305237 0.307411 0.307411 0.309305 0.309305 0.310903 0.310903 0.312189 0.312189 0.313148 0.313148 0.313765 0.313765 0.314025 0.314025 0.313912 0.313912 0.313411 0.313411 0.312509 0.312509 0.311189 0.311189 0.309438 0.309438 0.307241 0.307241 0.304586 0.304586 0.301458 0.301458 0.297845 0.297845 0.293734 0.293734 0.289113 0.289113 0.283972 0.283972 0.2783 0.2783 0.272086 0.272086 0.265321 0.265321 0.257997 0.257997 0.250107 0.250107 0.241642 0.241642 0.232598 0.232598 0.222969 0.222969 0.212751 0.212751 0.20194 0.20194 0.190535 0.190535 0.178535 0.178535 0.16594 0.16594 0.15275 0.15275 0.138968 0.138968 0.124598 0.124598 0.109643 0.109643 0.0941107 0.0941107 0.078007 0.078007 0.0613404 0.0613404 0.0441202 0.0441202 0.0263573 0.0263573 0.00806336 0.00806336 -0.0107483 -0.0107483 -0.0300633 -0.0300633 -0.0498662 -0.0498662 -0.0701401 -0.0701401 -0.0908671 -0.0908671 -0.112028 -0.112028 -0.133603 -0.133603 -0.15557 -0.15557 -0.177906 -0.177906 -0.200589 -0.200589 -0.223594 -0.223594 -0.246895 -0.246895 -0.270466 -0.270466 -0.29428 -0.29428 -0.318307 -0.318307 -0.342521 -0.342521 -0.36689 -0.36689 -0.391385 -0.391385 -0.415974 -0.415974 -0.440627 -0.440627 -0.465311 -0.465311 -0.489994 -0.489994 -0.514643 -0.514643 -0.539225 -0.539225 -0.563708 -0.563708 -0.588058 -0.588058 -0.612241 -0.612241 -0.636225 -0.636225 -0.659976 -0.659976 -0.683462 -0.683462 -0.706648 -0.706648 -0.729504 -0.729504 -0.751996 -0.751996 -0.774094 -0.774094 -0.795766 -0.795766 -0.816982 -0.816982 -0.837712 -0.837712 -0.857927 -0.857927 -0.877599 -0.877599 -0.896701 -0.896701 -0.915205 -0.915205 -0.933087 -0.933087 -0.950323 -0.950323 -0.966889 -0.966889 -0.982763 -0.982763 -0.997924 -0.997924 -1.01235 -1.01235 -1.02603 -1.02603 -1.03894 -1.03894 -1.05107 -1.05107 -1.0624 -1.0624 -1.07292 -1.07292 -1.08261 -1.08261 -1.09148 -1.09148 -1.0995 -1.0995 -1.10668 -1.10668 -1.11301 -1.11301 -1.11848 -1.11848 -1.12309 -1.12309 -1.12684 -1.12684 -1.12973 -1.12973 -1.13176 -1.13176 -1.13294 -1.13294 -1.13327 -1.13327 -1.13276 -1.13276 -1.13141 -1.13141 -1.12923 -1.12923 -1.12624 -1.12624 -1.12244 -1.12244 -1.11785 -1.11785 -1.11249 -1.11249 -1.10636 -1.10636 -1.09949 -1.09949 -1.09188 -1.09188 -1.08357 -1.08357 -1.07456 -1.07456 -1.06489 -1.06489 -1.05456 -1.05456 -1.04361 -1.04361 -1.03205 -1.03205 -1.01991 -1.01991 -1.00721 -1.00721 -0.993976 -0.993976 -0.980235 -0.980235 -0.966009 -0.966009 -0.951326 -0.951326 -0.936212 -0.936212 -0.920692 -0.920692 -0.904793 -0.904793 -0.888541 -0.888541 -0.871964 -0.871964 -0.855087 -0.855087 -0.837938 -0.837938 -0.820543 -0.820543 -0.802928 -0.802928 -0.785119 -0.785119 -0.767143 -0.767143 -0.749024 -0.749024 -0.730788 -0.730788 -0.71246 -0.71246 -0.694064 -0.694064 -0.675625 -0.675625 -0.657164 -0.657164 -0.638706 -0.638706 -0.620272 -0.620272 -0.601883 -0.601883 -0.583562 -0.583562 -0.565328 -0.565328 -0.5472 -0.5472 -0.529198 -0.529198 -0.511339 -0.511339 -0.493641 -0.493641 -0.47612 -0.47612 -0.458793 -0.458793 -0.441673 -0.441673 -0.424776 -0.424776 -0.408115 -0.408115 -0.391701 -0.391701 -0.375547 -0.375547 -0.359665 -0.359665 -0.344063 -0.344063 -0.328751 -0.328751 -0.313738 -0.313738 -0.299031 -0.299031 -0.284638 -0.284638 -0.270564 -0.270564 -0.256815 -0.256815 -0.243396 -0.243396 -0.230311 -0.230311 -0.217562 -0.217562 -0.205153 -0.205153 -0.193085 -0.193085 -0.18136 -0.18136 -0.169979 -0.169979 -0.158941 -0.158941 -0.148245 -0.148245 -0.137892 -0.137892 -0.127879 -0.127879 -0.118203 -0.118203 -0.108864 -0.108864 -0.0998565 -0.0998565 -0.0911783 -0.0911783 -0.0828252 -0.0828252 -0.074793 -0.074793 -0.0670769 -0.0670769 -0.0596721 -0.0596721 -0.0525734 -0.0525734 -0.045775 -0.045775 -0.0392714 -0.0392714 -0.0330563 -0.0330563 -0.0271237 -0.0271237 -0.021467 -0.021467 -0.0160796 -0.0160796 -0.0109549 -0.0109549 -0.00608584 -0.00608584 -0.00146556 -0.00146556 0.00291302 0.00291302 0.00705703 0.00705703 0.0109736 0.0109736 0.01467 0.01467 0.0181535 0.0181535 0.0214311 0.0214311 0.0245102 0.0245102 0.0273978 0.0273978 0.0301011 0.0301011 0.0326272 0.0326272 0.034983 0.034983 0.0371754 0.0371754 0.0392112 0.0392112 0.0410972 0.0410972 0.0428399 0.0428399 0.0444459 0.0444459 0.0459213 0.0459213 0.0472726 0.0472726 0.0485057 0.0485057 0.0496265 0.0496265 0.050641 0.050641 0.0515545 0.0515545 0.0523728 0.0523728 0.053101 0.053101 0.0537443 0.0537443 0.0543077 0.0543077 0.054796 0.054796 0.0552138 0.0552138 0.0555657 0.0555657 0.0558559 0.0558559 0.0560887 0.0560887 0.0562679 0.0562679 0.0563975 0.0563975 0.0564811 0.0564811 0.0565221 0.0565221 0.056524 0.056524 0.05649 0.05649 0.056423 0.056423 0.056326 0.056326 0.0562017 0.0562017 0.0560527 0.0560527 0.0558815 0.0558815 0.0556905 0.0556905 0.0554817 0.0554817 0.0552574 0.0552574 0.0550193 0.0550193 0.0547695 0.0547695 0.0545095 0.0545095 0.054241 0.054241 0.0539655 0.0539655 0.0536843 0.0536843 0.0533989 0.0533989 0.0531102 0.0531102 0.0528196 0.0528196 0.0525279 0.0525279 0.0522362 0.0522362 0.0519453 0.0519453 0.051656 0.051656 0.0513689 0.0513689 0.0510848 0.0510848 0.0508042 0.0508042 0.0505277 0.0505277 0.0502557 0.0502557 0.0499886 0.0499886 0.0497268 0.0497268 0.0494706 0.0494706 0.0492203 0.0492203 0.0489761 0.0489761 0.0487381 0.0487381 0.0485067 0.0485067 0.0482818 0.0482818 0.0480635 0.0480635 0.047852 0.047852 0.0476473 0.0476473 0.0474493 0.0474493 0.0472581 0.0472581 0.0470736 0.0470736 0.0468959 0.0468959 0.0467247 0.0467247 0.0465601 0.0465601 0.046402 0.046402 0.0462502 0.0462502 0.0461047 0.0461047 0.0459653 0.0459653 0.0458318 0.0458318 0.0457042 0.0457042 0.0455824 0.0455824 0.0454661 0.0454661 0.0453552 0.0453552 0.0452495 0.0452495 0.045149 0.045149 0.0450534 0.0450534 0.0449626 0.0449626 0.0448764 0.0448764 0.0447947 0.0447947 0.0447173 0.0447173 0.0446441 0.0446441 0.0445748 0.0445748 0.0445094 0.0445094 0.0444477 0.0444477 0.0443895 0.0443895 0.0443348 0.0443348 0.0442833 0.0442833 0.0442349 0.0442349 0.0441895 0.0441895 0.044147 0.044147 0.0441072 0.0441072 0.04407 0.04407 0.0440352 0.0440352 0.0440029 0.0440029 0.0439727 0.0439727 0.0439448 0.0439448 0.0439188 0.0439188 0.0438948 0.0438948 0.0438726 0.0438726 0.0438522 0.0438522 0.0438334 0.0438334 0.0438161 0.0438161 0.0438004 0.0438004 0.043786 0.043786 0.043773 0.043773 0.0437612 0.0437612 0.0437506 0.0437506 0.0437411 0.0437411 0.0437326 0.0437326 0.0437251 0.0437251 0.0437185 0.0437185 0.0437128 0.0437128 0.043708 0.043708 0.0437039 0.0437039 0.0437005 0.0437005 0.0436977 0.0436977 0.0436957 0.0436957 0.0436942 0.0436942 0.0436932 0.0436932 0.0436928 0.0436928 0.0436928 0.0436928 0.0436933 0.0436933 0.0436942 0.0436942 0.0436954 0.0436954 0.0436971 0.0436971 0.043699 0.043699 0.0437013 0.0437013 0.0437039 0.0437039 0.0437067 0.0437067 0.0437097 0.0437097 0.043713 0.043713 0.0437165 0.0437165 0.0437201 0.0437201 0.0437239 0.0437239 0.0437279 0.0437279 0.043732 0.043732 0.0437363 0.0437363 0.0437406 0.0437406 0.043745 0.043745 0.0437496 0.0437496 0.0437542 0.0437542 0.0437589 0.0437589 0.0437636 0.0437636 0.0437684 0.0437684 0.0437732 0.0437732 0.0437781 0.0437781 0.043783 0.043783 0.0437879 0.0437879 0.0437928 0.0437928 0.0437978 0.0437978 0.0438027 0.0438027 0.0438077 0.0438077 0.0438126 0.0438126 0.0438175 0.0438175 0.0438225 0.0438225 0.0438274 0.0438274 0.0438323 0.0438323 0.0438371 0.0438371 0.043842 0.043842 0.0438468 0.0438468 0.0438516 0.0438516 0.0438563 0.0438563 0.043861 0.043861 0.0438657 0.0438657 0.0438704 0.0438704 0.043875 0.043875 0.0438795 0.0438795 0.0438841 0.0438841 0.0438885 0.0438885 0.043893 0.043893 0.0438974 0.0438974 0.0439017 0.0439017 0.043906 0.043906 0.0439103 0.0439103 0.0439145 0.0439145 0.0439187 0.0439187 0.0439228 0.0439228 0.0439269 0.0439269 0.0439309 0.0439309 0.0439349 0.0439349 0.0439388 0.0439388 0.0439427 0.0439427 0.0439465 0.0439465 0.0439503 0.0439503 0.043954 0.043954 0.0439577 0.0439577 0.0439614 0.0439614 0.043965 0.043965 0.0439686 0.0439686 0.0439721 0.0439721 0.0439755 0.0439755 0.043979 0.043979 0.0439823 0.0439823 0.0439857 0.0439857 0.043989 0.043989 0.0439922 0.0439922 0.0439954 0.0439954 0.0439986 0.0439986 0.0440017 0.0440017 0.0440048 0.0440048 0.0440078 0.0440078 0.0440108 0.0440108 0.0440138 0.0440138 0.0440167 0.0440167 0.0440196 0.0440196 0.0440225 0.0440225 0.0440253 0.0440253 0.0440281 0.0440281 0.0440308 0.0440308 0.0440335 0.0440335 0.0440362 0.0440362 0.0440389 0.0440389 0.0440415 0.0440415 0.0440441 0.0440441 0.0440466 0.0440466 0.0440491 0.0440491 0.0440516 0.0440516 0.0440541 0.0440541 0.0440565 0.0440565 0.0440589 0.0440589 0.0440613 0.0440613 0.0440637 0.0440637 0.044066 0.044066 0.0440683 0.0440683 0.0440706 0.0440706 0.0440729 0.0440729 0.0440751 0.0440751 0.0440773 0.0440773 0.0440795 0.0440795 0.0440817 0.0440817 0.0440839 0.0440839 0.044086 0.044086 0.0440881 0.0440881 0.0440903 0.0440903 0.0440923 0.0440923 0.0440944 0.0440944 0.0440965 0.0440965 0.0440985 0.0440985 0.0441006 0.0441006 0.0441026 0.0441026 0.0441046 0.0441046 0.0441066 0.0441066 0.0441086 0.0441086 0.0441105 0.0441105 0.0441125 0.0441125 0.0441145 0.0441145 0.0441164 0.0441164 0.0441184 0.0441184 0.0441203 0.0441203 0.0441222 0.0441222 0.0441241 0.0441241 0.0441261 0.0441261 0.044128 0.044128 0.0441299 0.0441299 0.0441318 0.0441318 0.0441337 0.0441337 0.0441356 0.0441356 0.0441375 0.0441375 0.0441394 0.0441394 0.0441413 0.0441413 0.0441432 0.0441432 0.0441451 0.0441451 0.044147 0.044147 0.0441489 0.0441489 0.0441508 0.0441508 0.0441528 0.0441528 0.0441547 0.0441547 0.0441566 0.0441566 0.0441585 0.0441585 0.0441605 0.0441605 0.0441624 0.0441624 0.0441644 0.0441644 0.0441663 0.0441663 0.0441683 0.0441683 0.0441703 0.0441703 0.0441723 0.0441723 0.0441743 0.0441743 0.0441763 0.0441763 0.0441783 0.0441783 0.0441804 0.0441804 0.0441824 0.0441824 0.0441845 0.0441845 0.0441865 0.0441865 0.0441886 0.0441886 0.0441907 0.0441907 0.0441929 0.0441929 0.044195 0.044195 0.0441972 0.0441972 0.0441993 0.0441993 0.0442015 0.0442015 0.0442037 0.0442037 0.044206 0.044206 0.0442082 0.0442082 0.0442105 0.0442105 0.0442128 0.0442128 0.0442151 0.0442151 0.0442174 0.0442174 0.0442197 0.0442197 0.0442221 0.0442221 0.0442245 0.0442245 0.0442269 0.0442269 0.0442294 0.0442294 0.0442319 0.0442319 0.0442344 0.0442344 0.0442369 0.0442369 0.0442394 0.0442394 0.044242 0.044242 0.0442446 0.0442446 0.0442473 0.0442473 0.0442499 0.0442499 0.0442526 0.0442526 0.0442553 0.0442553 0.0442581 0.0442581 0.0442609 0.0442609 0.0442637 0.0442637 0.0442665 0.0442665 0.0442694 0.0442694 0.0442723 0.0442723 0.0442753 0.0442753 0.0442783 0.0442783 0.0442813 0.0442813 0.0442844 0.0442844 0.0442874 0.0442874 0.0442906 0.0442906 0.0442937 0.0442937 0.0442969 0.0442969 0.0443002 0.0443002 0.0443035 0.0443035 0.0443068 0.0443068 0.0443102 0.0443102 0.0443136 0.0443136 0.044317 0.044317 0.0443205 0.0443205 0.0443241 0.0443241 0.0443277 0.0443277 0.0443313 0.0443313 0.044335 0.044335 0.0443387 0.0443387 0.0443425 0.0443425 0.0443463 0.0443463 0.0443501 0.0443501 0.0443541 0.0443541 0.044358 0.044358 0.0443621 0.0443621 0.0443661 0.0443661 0.0443703 0.0443703 0.0443745 0.0443745 0.0443787 0.0443787 0.044383 0.044383 0.0443874 0.0443874 0.0443918 0.0443918 0.0443963 0.0443963 0.0444008 0.0444008 0.0444054 0.0444054 0.0444101 0.0444101 0.0444148 0.0444148 0.0444196 0.0444196 0.0444245 0.0444245 0.0444294 0.0444294 0.0444344 0.0444344 0.0444395 0.0444395 0.0444447 0.0444447 0.0444499 0.0444499 0.0444552 0.0444552 0.0444606 0.0444606 0.0444661 0.0444661 0.0444716 0.0444716 0.0444773 0.0444773 0.044483 0.044483 0.0444888 0.0444888 0.0444947 0.0444947 0.0445007 0.0445007 0.0445068 0.0445068 0.044513 0.044513 0.0445193 0.0445193 0.0445257 0.0445257 0.0445322 0.0445322 0.0445388 0.0445388 0.0445455 0.0445455 0.0445524 0.0445524 0.0445593 0.0445593 0.0445664 0.0445664 0.0445736 0.0445736 0.0445809 0.0445809 0.0445884 0.0445884 0.044596 0.044596 0.0446037 0.0446037 0.0446116 0.0446116 0.0446196 0.0446196 0.0446278 0.0446278 0.0446361 0.0446361 0.0446446 0.0446446 0.0446532 0.0446532 0.044662 0.044662 0.044671 0.044671 0.0446802 0.0446802 0.0446895 0.0446895 0.044699 0.044699 0.0447087 0.0447087 0.0447186 0.0447186 0.0447287 0.0447287 0.0447391 0.0447391 0.0447496 0.0447496 0.0447603 0.0447603 0.0447713 0.0447713 0.0447825 0.0447825 0.0447939 0.0447939 0.0448055 0.0448055 0.0448175 0.0448175 0.0448296 0.0448296 0.044842 0.044842 0.0448547 0.0448547 0.0448676 0.0448676 0.0448809 0.0448809 0.0448944 0.0448944 0.0449082 0.0449082 0.0449223 0.0449223 0.0449366 0.0449366 0.0449513 0.0449513 0.0449663 0.0449663 0.0449817 0.0449817 0.0449973 0.0449973 0.0450133 0.0450133 0.0450296 0.0450296 0.0450463 0.0450463 0.0450633 0.0450633 0.0450807 0.0450807 0.0450984 0.0450984 0.0451165 0.0451165 0.0451349 0.0451349 0.0451538 0.0451538 0.045173 0.045173 0.0451925 0.0451925 0.0452125 0.0452125 0.0452329 0.0452329 0.0452536 0.0452536 0.0452748 0.0452748 0.0452963 0.0452963 0.0453182 0.0453182 0.0453406 0.0453406 0.0453633 0.0453633 0.0453865 0.0453865 0.04541 0.04541 0.0454339 0.0454339 0.0454582 0.0454582 0.045483 0.045483 0.0455081 0.0455081 0.0455336 0.0455336 0.0455594 0.0455594 0.0455857 0.0455857 0.0456123 0.0456123 0.0456393 0.0456393 0.0456666 0.0456666 0.0456943 0.0456943 0.0457223 0.0457223 0.0457506 0.0457506 0.0457793 0.0457793 0.0458082 0.0458082 0.0458374 0.0458374 0.0458669 0.0458669 0.0458966 0.0458966 0.0459266 0.0459266 0.0459568 0.0459568 0.0459872 0.0459872 0.0460177 0.0460177 0.0460484 0.0460484 0.0460792 0.0460792 0.0461101 0.0461101 0.046141 0.046141 0.046172 0.046172 0.0462031 0.0462031 0.0462341 0.0462341 0.046265 0.046265 0.0462958 0.0462958 0.0463266 0.0463266 0.0463571 0.0463571 0.0463875 0.0463875 0.0464176 0.0464176 0.0464475 0.0464475 0.046477 0.046477 0.0465062 0.0465062 0.0465349 0.0465349 0.0465632 0.0465632 0.046591 0.046591 0.0466183 0.0466183 0.0466449 0.0466449 0.0466709 0.0466709 0.0466962 0.0466962 0.0467207 0.0467207 0.0467445 0.0467445 0.0467673 0.0467673 0.0467892 0.0467892 0.0468102 0.0468102 0.0468301 0.0468301 0.0468489 0.0468489 0.0468666 0.0468666 0.0468831 0.0468831 0.0468983 0.0468983 0.0469122 0.0469122 0.0469247 0.0469247 0.0469357 0.0469357 0.0469452 0.0469452 0.0469532 0.0469532 0.0469596 0.0469596 0.0469642 0.0469642 0.0469672 0.0469672 0.0469683 0.0469683 0.0469676 0.0469676 0.0469649 0.0469649 0.0469603 0.0469603 0.0469537 0.0469537 0.0469449 0.0469449 0.0469341 0.0469341 0.0469211 0.0469211 0.0469058 0.0469058 0.0468883 0.0468883 0.0468684 0.0468684 0.0468462 0.0468462 0.0468216 0.0468216 0.0467945 0.0467945 0.046765 0.046765 0.0467329 0.0467329 0.0466982 0.0466982 0.046661 0.046661 0.0466212 0.0466212 0.0465787 0.0465787 0.0465335 0.0465335 0.0464857 0.0464857 0.0464352 0.0464352 0.046382 0.046382 0.046326 0.046326 0.0462674 0.0462674 0.046206 0.046206 0.0461419 0.0461419 0.046075 0.046075 0.0460055 0.0460055 0.0459332 0.0459332 0.0458582 0.0458582 0.0457806 0.0457806 0.0457003 0.0457003 0.0456174 0.0456174 0.0455319 0.0455319 0.0454438 0.0454438 0.0453532 0.0453532 0.0452602 0.0452602 0.0451646 0.0451646 0.0450667 0.0450667 0.0449665 0.0449665 0.0448639 0.0448639 0.0447591 0.0447591 0.0446522 0.0446522 0.0445432 0.0445432 0.0444321 0.0444321 0.044319 0.044319 0.0442041 0.0442041 0.0440873 0.0440873 0.0439689 0.0439689 0.0438487 0.0438487 0.0437271 0.0437271 0.0436039 0.0436039 0.0434793 0.0434793 0.0433535 0.0433535 0.0432265 0.0432265 0.0430983 0.0430983 0.0429692 0.0429692 0.0428392 0.0428392 0.0427083 0.0427083 0.0425768 0.0425768 0.0424447 0.0424447 0.0423121 0.0423121 0.0421791 0.0421791 0.0420458 0.0420458 0.0419123 0.0419123 0.0417788 0.0417788 0.0416454 0.0416454 0.041512 0.041512 0.041379 0.041379 0.0412462 0.0412462 0.041114 0.041114 0.0409823 0.0409823 0.0408513 0.0408513 0.040721 0.040721 0.0405916 0.0405916 0.0404632 0.0404632 0.0403358 0.0403358 0.0402096 0.0402096 0.0400846 0.0400846 0.039961 0.039961 0.0398388 0.0398388 0.0397181 0.0397181 0.039599 0.039599 0.0394815 0.0394815 0.0393658 0.0393658 0.0392519 0.0392519 0.0391398 0.0391398 0.0390298 0.0390298 0.0389217 0.0389217 0.0388157 0.0388157 0.0387118 0.0387118 0.0386101 0.0386101 0.0385106 0.0385106 0.0384134 0.0384134 0.0383185 0.0383185 0.038226 0.038226 0.0381358 0.0381358 0.038048 0.038048 0.0379627 0.0379627 0.0378799 0.0378799 0.0377995 0.0377995 0.0377216 0.0377216 0.0376461 0.0376461 0.0375732 0.0375732 0.0375029 0.0375029 0.037435 0.037435 0.0373696 0.0373696 0.0373067 0.0373067 0.0372463 0.0372463 0.0371884 0.0371884 0.0371329 0.0371329 0.0370798 0.0370798 0.0370292 0.0370292 0.0369809 0.0369809 0.036935 0.036935 0.0368914 0.0368914 0.0368501 0.0368501 0.036811 0.036811 0.0367741 0.0367741 0.0367394 0.0367394 0.0367068 0.0367068 0.0366762 0.0366762 0.0366477 0.0366477 0.0366211 0.0366211 0.0365965 0.0365965 0.0365737 0.0365737 0.0365527 0.0365527 0.0365334 0.0365334 0.0365159 0.0365159 0.0364999 0.0364999 0.0364855 0.0364855 0.0364727 0.0364727 0.0364612 0.0364612 0.0364512 0.0364512 0.0364425 0.0364425 0.036435 0.036435 0.0364287 0.0364287 0.0364235 0.0364235 0.0364194 0.0364194 0.0364163 0.0364163 0.0364142 0.0364142 0.0364129 0.0364129 0.0364124 0.0364124 0.0364127 0.0364127 0.0364136 0.0364136 0.0364152 0.0364152 0.0364174 0.0364174 0.03642 0.03642 0.0364232 0.0364232 0.0364267 0.0364267 0.0364305 0.0364305 0.0364346 0.0364346 0.036439 0.036439 0.0364435 0.0364435 0.0364481 0.0364481 0.0364528 0.0364528 0.0364575 0.0364575 0.0364622 0.0364622 0.0364668 0.0364668 0.0364713 0.0364713 0.0364756 0.0364756 0.0364797 0.0364797 0.0364836 0.0364836 0.0364872 0.0364872 0.0364904 0.0364904 0.0364933 0.0364933 0.0364957 0.0364957 0.0364977 0.0364977 0.0364992 0.0364992 0.0365003 0.0365003 0.0365007 0.0365007 0.0365006 0.0365006 0.0364999 0.0364999 0.0364986 0.0364986 0.0364966 0.0364966 0.036494 0.036494 0.0364906 0.0364906 0.0364865 0.0364865 0.0364816 0.0364816 0.036476 0.036476 0.0364696 0.0364696 0.0364624 0.0364624 0.0364543 0.0364543 0.0364454 0.0364454 0.0364356 0.0364356 0.0364249 0.0364249 0.0364134 0.0364134 0.0364009 0.0364009 0.0363875 0.0363875 0.0363731 0.0363731 0.0363578 0.0363578 0.0363416 0.0363416 0.0363243 0.0363243 0.0363061 0.0363061 0.0362868 0.0362868 0.0362666 0.0362666 0.0362453 0.0362453 0.036223 0.036223 0.0361996 0.0361996 0.0361752 0.0361752 0.0361497 0.0361497 0.0361231 0.0361231 0.0360955 0.0360955 0.0360667 0.0360667 0.0360368 0.0360368 0.0360058 0.0360058 0.0359737 0.0359737 0.0359404 0.0359404 0.035906 0.035906 0.0358704 0.0358704 0.0358336 0.0358336 0.0357956 0.0357956 0.0357564 0.0357564 0.035716 0.035716 0.0356743 0.0356743 0.0356313 0.0356313 0.0355871 0.0355871 0.0355415 0.0355415 0.0354946 0.0354946 0.0354464 0.0354464 0.0353968 0.0353968 0.0353458 0.0353458 0.0352934 0.0352934 0.0352395 0.0352395 0.0351841 0.0351841 0.0351272 0.0351272 0.0350687 0.0350687 0.0350087 0.0350087 0.034947 0.034947 0.0348836 0.0348836 0.0348185 0.0348185 0.0347516 0.0347516 0.0346828 0.0346828 0.0346122 0.0346122 0.03453