# vtk DataFile Version 3.0
#This file was generated by the deal.II library on 2020/9/1 at 14:41:27
ASCII
DATASET UNSTRUCTURED_GRID

POINTS 2048 double
1.5 0 0
1.59619 0 0
1.59619 0 0
1.69238 0 0
1.69238 0 0
1.78857 0 0
1.78857 0 0
1.88477 0 0
1.88477 0 0
1.98096 0 0
1.98096 0 0
2.07715 0 0
2.07715 0 0
2.17334 0 0
2.17334 0 0
2.26953 0 0
2.26953 0 0
2.36572 0 0
2.36572 0 0
2.46191 0 0
2.46191 0 0
2.55811 0 0
2.55811 0 0
2.6543 0 0
2.6543 0 0
2.75049 0 0
2.75049 0 0
2.84668 0 0
2.84668 0 0
2.94287 0 0
2.94287 0 0
3.03906 0 0
3.03906 0 0
3.13525 0 0
3.13525 0 0
3.23145 0 0
3.23145 0 0
3.32764 0 0
3.32764 0 0
3.42383 0 0
3.42383 0 0
3.52002 0 0
3.52002 0 0
3.61621 0 0
3.61621 0 0
3.7124 0 0
3.7124 0 0
3.80859 0 0
3.80859 0 0
3.90479 0 0
3.90479 0 0
4.00098 0 0
4.00098 0 0
4.09717 0 0
4.09717 0 0
4.19336 0 0
4.19336 0 0
4.28955 0 0
4.28955 0 0
4.38574 0 0
4.38574 0 0
4.48193 0 0
4.48193 0 0
4.57812 0 0
4.57812 0 0
4.67432 0 0
4.67432 0 0
4.77051 0 0
4.77051 0 0
4.8667 0 0
4.8667 0 0
4.96289 0 0
4.96289 0 0
5.05908 0 0
5.05908 0 0
5.15527 0 0
5.15527 0 0
5.25146 0 0
5.25146 0 0
5.34766 0 0
5.34766 0 0
5.44385 0 0
5.44385 0 0
5.54004 0 0
5.54004 0 0
5.63623 0 0
5.63623 0 0
5.73242 0 0
5.73242 0 0
5.82861 0 0
5.82861 0 0
5.9248 0 0
5.9248 0 0
6.021 0 0
6.021 0 0
6.11719 0 0
6.11719 0 0
6.21338 0 0
6.21338 0 0
6.30957 0 0
6.30957 0 0
6.40576 0 0
6.40576 0 0
6.50195 0 0
6.50195 0 0
6.59814 0 0
6.59814 0 0
6.69434 0 0
6.69434 0 0
6.79053 0 0
6.79053 0 0
6.88672 0 0
6.88672 0 0
6.98291 0 0
6.98291 0 0
7.0791 0 0
7.0791 0 0
7.17529 0 0
7.17529 0 0
7.27148 0 0
7.27148 0 0
7.36768 0 0
7.36768 0 0
7.46387 0 0
7.46387 0 0
7.56006 0 0
7.56006 0 0
7.65625 0 0
7.65625 0 0
7.75244 0 0
7.75244 0 0
7.84863 0 0
7.84863 0 0
7.94482 0 0
7.94482 0 0
8.04102 0 0
8.04102 0 0
8.13721 0 0
8.13721 0 0
8.2334 0 0
8.2334 0 0
8.32959 0 0
8.32959 0 0
8.42578 0 0
8.42578 0 0
8.52197 0 0
8.52197 0 0
8.61816 0 0
8.61816 0 0
8.71436 0 0
8.71436 0 0
8.81055 0 0
8.81055 0 0
8.90674 0 0
8.90674 0 0
9.00293 0 0
9.00293 0 0
9.09912 0 0
9.09912 0 0
9.19531 0 0
9.19531 0 0
9.2915 0 0
9.2915 0 0
9.3877 0 0
9.3877 0 0
9.48389 0 0
9.48389 0 0
9.58008 0 0
9.58008 0 0
9.67627 0 0
9.67627 0 0
9.77246 0 0
9.77246 0 0
9.86865 0 0
9.86865 0 0
9.96484 0 0
9.96484 0 0
10.061 0 0
10.061 0 0
10.1572 0 0
10.1572 0 0
10.2534 0 0
10.2534 0 0
10.3496 0 0
10.3496 0 0
10.4458 0 0
10.4458 0 0
10.542 0 0
10.542 0 0
10.6382 0 0
10.6382 0 0
10.7344 0 0
10.7344 0 0
10.8306 0 0
10.8306 0 0
10.9268 0 0
10.9268 0 0
11.0229 0 0
11.0229 0 0
11.1191 0 0
11.1191 0 0
11.2153 0 0
11.2153 0 0
11.3115 0 0
11.3115 0 0
11.4077 0 0
11.4077 0 0
11.5039 0 0
11.5039 0 0
11.6001 0 0
11.6001 0 0
11.6963 0 0
11.6963 0 0
11.7925 0 0
11.7925 0 0
11.8887 0 0
11.8887 0 0
11.9849 0 0
11.9849 0 0
12.0811 0 0
12.0811 0 0
12.1772 0 0
12.1772 0 0
12.2734 0 0
12.2734 0 0
12.3696 0 0
12.3696 0 0
12.4658 0 0
12.4658 0 0
12.562 0 0
12.562 0 0
12.6582 0 0
12.6582 0 0
12.7544 0 0
12.7544 0 0
12.8506 0 0
12.8506 0 0
12.9468 0 0
12.9468 0 0
13.043 0 0
13.043 0 0
13.1392 0 0
13.1392 0 0
13.2354 0 0
13.2354 0 0
13.3315 0 0
13.3315 0 0
13.4277 0 0
13.4277 0 0
13.5239 0 0
13.5239 0 0
13.6201 0 0
13.6201 0 0
13.7163 0 0
13.7163 0 0
13.8125 0 0
13.8125 0 0
13.9087 0 0
13.9087 0 0
14.0049 0 0
14.0049 0 0
14.1011 0 0
14.1011 0 0
14.1973 0 0
14.1973 0 0
14.2935 0 0
14.2935 0 0
14.3896 0 0
14.3896 0 0
14.4858 0 0
14.4858 0 0
14.582 0 0
14.582 0 0
14.6782 0 0
14.6782 0 0
14.7744 0 0
14.7744 0 0
14.8706 0 0
14.8706 0 0
14.9668 0 0
14.9668 0 0
15.063 0 0
15.063 0 0
15.1592 0 0
15.1592 0 0
15.2554 0 0
15.2554 0 0
15.3516 0 0
15.3516 0 0
15.4478 0 0
15.4478 0 0
15.5439 0 0
15.5439 0 0
15.6401 0 0
15.6401 0 0
15.7363 0 0
15.7363 0 0
15.8325 0 0
15.8325 0 0
15.9287 0 0
15.9287 0 0
16.0249 0 0
16.0249 0 0
16.1211 0 0
16.1211 0 0
16.2173 0 0
16.2173 0 0
16.3135 0 0
16.3135 0 0
16.4097 0 0
16.4097 0 0
16.5059 0 0
16.5059 0 0
16.6021 0 0
16.6021 0 0
16.6982 0 0
16.6982 0 0
16.7944 0 0
16.7944 0 0
16.8906 0 0
16.8906 0 0
16.9868 0 0
16.9868 0 0
17.083 0 0
17.083 0 0
17.1792 0 0
17.1792 0 0
17.2754 0 0
17.2754 0 0
17.3716 0 0
17.3716 0 0
17.4678 0 0
17.4678 0 0
17.564 0 0
17.564 0 0
17.6602 0 0
17.6602 0 0
17.7563 0 0
17.7563 0 0
17.8525 0 0
17.8525 0 0
17.9487 0 0
17.9487 0 0
18.0449 0 0
18.0449 0 0
18.1411 0 0
18.1411 0 0
18.2373 0 0
18.2373 0 0
18.3335 0 0
18.3335 0 0
18.4297 0 0
18.4297 0 0
18.5259 0 0
18.5259 0 0
18.6221 0 0
18.6221 0 0
18.7183 0 0
18.7183 0 0
18.8145 0 0
18.8145 0 0
18.9106 0 0
18.9106 0 0
19.0068 0 0
19.0068 0 0
19.103 0 0
19.103 0 0
19.1992 0 0
19.1992 0 0
19.2954 0 0
19.2954 0 0
19.3916 0 0
19.3916 0 0
19.4878 0 0
19.4878 0 0
19.584 0 0
19.584 0 0
19.6802 0 0
19.6802 0 0
19.7764 0 0
19.7764 0 0
19.8726 0 0
19.8726 0 0
19.9688 0 0
19.9688 0 0
20.0649 0 0
20.0649 0 0
20.1611 0 0
20.1611 0 0
20.2573 0 0
20.2573 0 0
20.3535 0 0
20.3535 0 0
20.4497 0 0
20.4497 0 0
20.5459 0 0
20.5459 0 0
20.6421 0 0
20.6421 0 0
20.7383 0 0
20.7383 0 0
20.8345 0 0
20.8345 0 0
20.9307 0 0
20.9307 0 0
21.0269 0 0
21.0269 0 0
21.123 0 0
21.123 0 0
21.2192 0 0
21.2192 0 0
21.3154 0 0
21.3154 0 0
21.4116 0 0
21.4116 0 0
21.5078 0 0
21.5078 0 0
21.604 0 0
21.604 0 0
21.7002 0 0
21.7002 0 0
21.7964 0 0
21.7964 0 0
21.8926 0 0
21.8926 0 0
21.9888 0 0
21.9888 0 0
22.085 0 0
22.085 0 0
22.1812 0 0
22.1812 0 0
22.2773 0 0
22.2773 0 0
22.3735 0 0
22.3735 0 0
22.4697 0 0
22.4697 0 0
22.5659 0 0
22.5659 0 0
22.6621 0 0
22.6621 0 0
22.7583 0 0
22.7583 0 0
22.8545 0 0
22.8545 0 0
22.9507 0 0
22.9507 0 0
23.0469 0 0
23.0469 0 0
23.1431 0 0
23.1431 0 0
23.2393 0 0
23.2393 0 0
23.3354 0 0
23.3354 0 0
23.4316 0 0
23.4316 0 0
23.5278 0 0
23.5278 0 0
23.624 0 0
23.624 0 0
23.7202 0 0
23.7202 0 0
23.8164 0 0
23.8164 0 0
23.9126 0 0
23.9126 0 0
24.0088 0 0
24.0088 0 0
24.105 0 0
24.105 0 0
24.2012 0 0
24.2012 0 0
24.2974 0 0
24.2974 0 0
24.3936 0 0
24.3936 0 0
24.4897 0 0
24.4897 0 0
24.5859 0 0
24.5859 0 0
24.6821 0 0
24.6821 0 0
24.7783 0 0
24.7783 0 0
24.8745 0 0
24.8745 0 0
24.9707 0 0
24.9707 0 0
25.0669 0 0
25.0669 0 0
25.1631 0 0
25.1631 0 0
25.2593 0 0
25.2593 0 0
25.3555 0 0
25.3555 0 0
25.4517 0 0
25.4517 0 0
25.5479 0 0
25.5479 0 0
25.644 0 0
25.644 0 0
25.7402 0 0
25.7402 0 0
25.8364 0 0
25.8364 0 0
25.9326 0 0
25.9326 0 0
26.0288 0 0
26.0288 0 0
26.125 0 0
26.125 0 0
26.2212 0 0
26.2212 0 0
26.3174 0 0
26.3174 0 0
26.4136 0 0
26.4136 0 0
26.5098 0 0
26.5098 0 0
26.606 0 0
26.606 0 0
26.7021 0 0
26.7021 0 0
26.7983 0 0
26.7983 0 0
26.8945 0 0
26.8945 0 0
26.9907 0 0
26.9907 0 0
27.0869 0 0
27.0869 0 0
27.1831 0 0
27.1831 0 0
27.2793 0 0
27.2793 0 0
27.3755 0 0
27.3755 0 0
27.4717 0 0
27.4717 0 0
27.5679 0 0
27.5679 0 0
27.6641 0 0
27.6641 0 0
27.7603 0 0
27.7603 0 0
27.8564 0 0
27.8564 0 0
27.9526 0 0
27.9526 0 0
28.0488 0 0
28.0488 0 0
28.145 0 0
28.145 0 0
28.2412 0 0
28.2412 0 0
28.3374 0 0
28.3374 0 0
28.4336 0 0
28.4336 0 0
28.5298 0 0
28.5298 0 0
28.626 0 0
28.626 0 0
28.7222 0 0
28.7222 0 0
28.8184 0 0
28.8184 0 0
28.9146 0 0
28.9146 0 0
29.0107 0 0
29.0107 0 0
29.1069 0 0
29.1069 0 0
29.2031 0 0
29.2031 0 0
29.2993 0 0
29.2993 0 0
29.3955 0 0
29.3955 0 0
29.4917 0 0
29.4917 0 0
29.5879 0 0
29.5879 0 0
29.6841 0 0
29.6841 0 0
29.7803 0 0
29.7803 0 0
29.8765 0 0
29.8765 0 0
29.9727 0 0
29.9727 0 0
30.0688 0 0
30.0688 0 0
30.165 0 0
30.165 0 0
30.2612 0 0
30.2612 0 0
30.3574 0 0
30.3574 0 0
30.4536 0 0
30.4536 0 0
30.5498 0 0
30.5498 0 0
30.646 0 0
30.646 0 0
30.7422 0 0
30.7422 0 0
30.8384 0 0
30.8384 0 0
30.9346 0 0
30.9346 0 0
31.0308 0 0
31.0308 0 0
31.127 0 0
31.127 0 0
31.2231 0 0
31.2231 0 0
31.3193 0 0
31.3193 0 0
31.4155 0 0
31.4155 0 0
31.5117 0 0
31.5117 0 0
31.6079 0 0
31.6079 0 0
31.7041 0 0
31.7041 0 0
31.8003 0 0
31.8003 0 0
31.8965 0 0
31.8965 0 0
31.9927 0 0
31.9927 0 0
32.0889 0 0
32.0889 0 0
32.1851 0 0
32.1851 0 0
32.2812 0 0
32.2812 0 0
32.3774 0 0
32.3774 0 0
32.4736 0 0
32.4736 0 0
32.5698 0 0
32.5698 0 0
32.666 0 0
32.666 0 0
32.7622 0 0
32.7622 0 0
32.8584 0 0
32.8584 0 0
32.9546 0 0
32.9546 0 0
33.0508 0 0
33.0508 0 0
33.147 0 0
33.147 0 0
33.2432 0 0
33.2432 0 0
33.3394 0 0
33.3394 0 0
33.4355 0 0
33.4355 0 0
33.5317 0 0
33.5317 0 0
33.6279 0 0
33.6279 0 0
33.7241 0 0
33.7241 0 0
33.8203 0 0
33.8203 0 0
33.9165 0 0
33.9165 0 0
34.0127 0 0
34.0127 0 0
34.1089 0 0
34.1089 0 0
34.2051 0 0
34.2051 0 0
34.3013 0 0
34.3013 0 0
34.3975 0 0
34.3975 0 0
34.4937 0 0
34.4937 0 0
34.5898 0 0
34.5898 0 0
34.686 0 0
34.686 0 0
34.7822 0 0
34.7822 0 0
34.8784 0 0
34.8784 0 0
34.9746 0 0
34.9746 0 0
35.0708 0 0
35.0708 0 0
35.167 0 0
35.167 0 0
35.2632 0 0
35.2632 0 0
35.3594 0 0
35.3594 0 0
35.4556 0 0
35.4556 0 0
35.5518 0 0
35.5518 0 0
35.6479 0 0
35.6479 0 0
35.7441 0 0
35.7441 0 0
35.8403 0 0
35.8403 0 0
35.9365 0 0
35.9365 0 0
36.0327 0 0
36.0327 0 0
36.1289 0 0
36.1289 0 0
36.2251 0 0
36.2251 0 0
36.3213 0 0
36.3213 0 0
36.4175 0 0
36.4175 0 0
36.5137 0 0
36.5137 0 0
36.6099 0 0
36.6099 0 0
36.7061 0 0
36.7061 0 0
36.8022 0 0
36.8022 0 0
36.8984 0 0
36.8984 0 0
36.9946 0 0
36.9946 0 0
37.0908 0 0
37.0908 0 0
37.187 0 0
37.187 0 0
37.2832 0 0
37.2832 0 0
37.3794 0 0
37.3794 0 0
37.4756 0 0
37.4756 0 0
37.5718 0 0
37.5718 0 0
37.668 0 0
37.668 0 0
37.7642 0 0
37.7642 0 0
37.8604 0 0
37.8604 0 0
37.9565 0 0
37.9565 0 0
38.0527 0 0
38.0527 0 0
38.1489 0 0
38.1489 0 0
38.2451 0 0
38.2451 0 0
38.3413 0 0
38.3413 0 0
38.4375 0 0
38.4375 0 0
38.5337 0 0
38.5337 0 0
38.6299 0 0
38.6299 0 0
38.7261 0 0
38.7261 0 0
38.8223 0 0
38.8223 0 0
38.9185 0 0
38.9185 0 0
39.0146 0 0
39.0146 0 0
39.1108 0 0
39.1108 0 0
39.207 0 0
39.207 0 0
39.3032 0 0
39.3032 0 0
39.3994 0 0
39.3994 0 0
39.4956 0 0
39.4956 0 0
39.5918 0 0
39.5918 0 0
39.688 0 0
39.688 0 0
39.7842 0 0
39.7842 0 0
39.8804 0 0
39.8804 0 0
39.9766 0 0
39.9766 0 0
40.0728 0 0
40.0728 0 0
40.1689 0 0
40.1689 0 0
40.2651 0 0
40.2651 0 0
40.3613 0 0
40.3613 0 0
40.4575 0 0
40.4575 0 0
40.5537 0 0
40.5537 0 0
40.6499 0 0
40.6499 0 0
40.7461 0 0
40.7461 0 0
40.8423 0 0
40.8423 0 0
40.9385 0 0
40.9385 0 0
41.0347 0 0
41.0347 0 0
41.1309 0 0
41.1309 0 0
41.2271 0 0
41.2271 0 0
[...]
POINT_DATA 2048
SCALARS solution_0 double 1
LOOKUP_TABLE default
0.601567 0.507767 0.507767 0.41786 0.41786 0.331156 0.331156 0.247136 0.247136 0.165402 0.165402 0.0856479 0.0856479 0.00763557 0.00763557 -0.0688194 -0.0688194 -0.14386 -0.14386 -0.217597 -0.217597 -0.290116 -0.290116 -0.361479 -0.361479 -0.431734 -0.431734 -0.500915 -0.500915 -0.569043 -0.569043 -0.63613 -0.63613 -0.702183 -0.702183 -0.767201 -0.767201 -0.831176 -0.831176 -0.894099 -0.894099 -0.955956 -0.955956 -1.01673 -1.01673 -1.0764 -1.0764 -1.13495 -1.13495 -1.19235 -1.19235 -1.24859 -1.24859 -1.30364 -1.30364 -1.35747 -1.35747 -1.41006 -1.41006 -1.46139 -1.46139 -1.51143 -1.51143 -1.56016 -1.56016 -1.60756 -1.60756 -1.6536 -1.6536 -1.69826 -1.69826 -1.74153 -1.74153 -1.78339 -1.78339 -1.8238 -1.8238 -1.86277 -1.86277 -1.90027 -1.90027 -1.93629 -1.93629 -1.97082 -1.97082 -2.00384 -2.00384 -2.03535 -2.03535 -2.06533 -2.06533 -2.09379 -2.09379 -2.1207 -2.1207 -2.14608 -2.14608 -2.16991 -2.16991 -2.1922 -2.1922 -2.21295 -2.21295 -2.23216 -2.23216 -2.24983 -2.24983 -2.26597 -2.26597 -2.28059 -2.28059 -2.29369 -2.29369 -2.30529 -2.30529 -2.31539 -2.31539 -2.32401 -2.32401 -2.33117 -2.33117 -2.33687 -2.33687 -2.34114 -2.34114 -2.34399 -2.34399 -2.34545 -2.34545 -2.34553 -2.34553 -2.34425 -2.34425 -2.34165 -2.34165 -2.33773 -2.33773 -2.33254 -2.33254 -2.32609 -2.32609 -2.31841 -2.31841 -2.30953 -2.30953 -2.29948 -2.29948 -2.28829 -2.28829 -2.27599 -2.27599 -2.26261 -2.26261 -2.24818 -2.24818 -2.23273 -2.23273 -2.2163 -2.2163 -2.19892 -2.19892 -2.18062 -2.18062 -2.16144 -2.16144 -2.14141 -2.14141 -2.12056 -2.12056 -2.09894 -2.09894 -2.07657 -2.07657 -2.0535 -2.0535 -2.02975 -2.02975 -2.00536 -2.00536 -1.98037 -1.98037 -1.9548 -1.9548 -1.92871 -1.92871 -1.90211 -1.90211 -1.87505 -1.87505 -1.84756 -1.84756 -1.81967 -1.81967 -1.79142 -1.79142 -1.76283 -1.76283 -1.73395 -1.73395 -1.7048 -1.7048 -1.67542 -1.67542 -1.64583 -1.64583 -1.61607 -1.61607 -1.58617 -1.58617 -1.55615 -1.55615 -1.52605 -1.52605 -1.49589 -1.49589 -1.46571 -1.46571 -1.43552 -1.43552 -1.40535 -1.40535 -1.37524 -1.37524 -1.3452 -1.3452 -1.31525 -1.31525 -1.28542 -1.28542 -1.25574 -1.25574 -1.22622 -1.22622 -1.19688 -1.19688 -1.16775 -1.16775 -1.13884 -1.13884 -1.11018 -1.11018 -1.08177 -1.08177 -1.05363 -1.05363 -1.02579 -1.02579 -0.998254 -0.998254 -0.971037 -0.971037 -0.944152 -0.944152 -0.917613 -0.917613 -0.891432 -0.891432 -0.865619 -0.865619 -0.840184 -0.840184 -0.815137 -0.815137 -0.790487 -0.790487 -0.766241 -0.766241 -0.742407 -0.742407 -0.718992 -0.718992 -0.696 -0.696 -0.673438 -0.673438 -0.651309 -0.651309 -0.629618 -0.629618 -0.608368 -0.608368 -0.587561 -0.587561 -0.567199 -0.567199 -0.547285 -0.547285 -0.527818 -0.527818 -0.508799 -0.508799 -0.490227 -0.490227 -0.472103 -0.472103 -0.454425 -0.454425 -0.437191 -0.437191 -0.420399 -0.420399 -0.404047 -0.404047 -0.388132 -0.388132 -0.37265 -0.37265 -0.357599 -0.357599 -0.342973 -0.342973 -0.328768 -0.328768 -0.314981 -0.314981 -0.301605 -0.301605 -0.288637 -0.288637 -0.276069 -0.276069 -0.263897 -0.263897 -0.252115 -0.252115 -0.240716 -0.240716 -0.229695 -0.229695 -0.219044 -0.219044 -0.208758 -0.208758 -0.198829 -0.198829 -0.18925 -0.18925 -0.180015 -0.180015 -0.171117 -0.171117 -0.162547 -0.162547 -0.1543 -0.1543 -0.146367 -0.146367 -0.138741 -0.138741 -0.131416 -0.131416 -0.124383 -0.124383 -0.117636 -0.117636 -0.111166 -0.111166 -0.104967 -0.104967 -0.0990305 -0.0990305 -0.0933502 -0.0933502 -0.0879185 -0.0879185 -0.0827281 -0.0827281 -0.0777719 -0.0777719 -0.0730428 -0.0730428 -0.0685338 -0.0685338 -0.0642379 -0.0642379 -0.0601482 -0.0601482 -0.0562581 -0.0562581 -0.0525608 -0.0525608 -0.0490497 -0.0490497 -0.0457184 -0.0457184 -0.0425606 -0.0425606 -0.0395699 -0.0395699 -0.0367403 -0.0367403 -0.0340658 -0.0340658 -0.0315405 -0.0315405 -0.0291585 -0.0291585 -0.0269143 -0.0269143 -0.0248024 -0.0248024 -0.0228174 -0.0228174 -0.0209541 -0.0209541 -0.0192072 -0.0192072 -0.0175719 -0.0175719 -0.0160433 -0.0160433 -0.0146166 -0.0146166 -0.0132874 -0.0132874 -0.012051 -0.012051 -0.0109033 -0.0109033 -0.00983992 -0.00983992 -0.00885691 -0.00885691 -0.00795032 -0.00795032 -0.00711631 -0.00711631 -0.00635122 -0.00635122 -0.00565148 -0.00565148 -0.00501366 -0.00501366 -0.00443444 -0.00443444 -0.00391063 -0.00391063 -0.00343914 -0.00343914 -0.00301702 -0.00301702 -0.00264141 -0.00264141 -0.00230958 -0.00230958 -0.00201889 -0.00201889 -0.00176681 -0.00176681 -0.00155093 -0.00155093 -0.00136892 -0.00136892 -0.00121857 -0.00121857 -0.00109774 -0.00109774 -0.00100441 -0.00100441 -0.000936641 -0.000936641 -0.000892577 -0.000892577 -0.000870455 -0.000870455 -0.000868594 -0.000868594 -0.000885396 -0.000885396 -0.000919339 -0.000919339 -0.000968979 -0.000968979 -0.00103295 -0.00103295 -0.00110994 -0.00110994 -0.00119873 -0.00119873 -0.00129815 -0.00129815 -0.0014071 -0.0014071 -0.00152455 -0.00152455 -0.00164951 -0.00164951 -0.00178106 -0.00178106 -0.00191834 -0.00191834 -0.00206053 -0.00206053 -0.00220687 -0.00220687 -0.00235664 -0.00235664 -0.00250918 -0.00250918 -0.00266385 -0.00266385 -0.00282008 -0.00282008 -0.00297733 -0.00297733 -0.00313509 -0.00313509 -0.0032929 -0.0032929 -0.00345033 -0.00345033 -0.00360697 -0.00360697 -0.00376247 -0.00376247 -0.0039165 -0.0039165 -0.00406873 -0.00406873 -0.0042189 -0.0042189 -0.00436675 -0.00436675 -0.00451205 -0.00451205 -0.00465459 -0.00465459 -0.0047942 -0.0047942 -0.0049307 -0.0049307 -0.00506396 -0.00506396 -0.00519384 -0.00519384 -0.00532023 -0.00532023 -0.00544305 -0.00544305 -0.00556221 -0.00556221 -0.00567765 -0.00567765 -0.00578932 -0.00578932 -0.00589717 -0.00589717 -0.00600118 -0.00600118 -0.00610133 -0.00610133 -0.00619762 -0.00619762 -0.00629003 -0.00629003 -0.00637859 -0.00637859 -0.00646331 -0.00646331 -0.00654421 -0.00654421 -0.00662132 -0.00662132 -0.00669467 -0.00669467 -0.00676432 -0.00676432 -0.0068303 -0.0068303 -0.00689266 -0.00689266 -0.00695147 -0.00695147 -0.00700676 -0.00700676 -0.00705862 -0.00705862 -0.00710709 -0.00710709 -0.00715225 -0.00715225 -0.00719416 -0.00719416 -0.00723289 -0.00723289 -0.00726851 -0.00726851 -0.0073011 -0.0073011 -0.00733072 -0.00733072 -0.00735744 -0.00735744 -0.00738135 -0.00738135 -0.00740252 -0.00740252 -0.00742101 -0.00742101 -0.00743691 -0.00743691 -0.00745028 -0.00745028 -0.0074612 -0.0074612 -0.00746974 -0.00746974 -0.00747598 -0.00747598 -0.00747998 -0.00747998 -0.00748181 -0.00748181 -0.00748155 -0.00748155 -0.00747925 -0.00747925 -0.007475 -0.007475 -0.00746885 -0.00746885 -0.00746087 -0.00746087 -0.00745112 -0.00745112 -0.00743967 -0.00743967 -0.00742657 -0.00742657 -0.00741189 -0.00741189 -0.00739568 -0.00739568 -0.007378 -0.007378 -0.00735891 -0.00735891 -0.00733846 -0.00733846 -0.0073167 -0.0073167 -0.00729368 -0.00729368 -0.00726946 -0.00726946 -0.00724408 -0.00724408 -0.00721759 -0.00721759 -0.00719003 -0.00719003 -0.00716145 -0.00716145 -0.00713189 -0.00713189 -0.0071014 -0.0071014 -0.00707001 -0.00707001 -0.00703777 -0.00703777 -0.0070047 -0.0070047 -0.00697085 -0.00697085 -0.00693626 -0.00693626 -0.00690095 -0.00690095 -0.00686496 -0.00686496 -0.00682833 -0.00682833 -0.00679108 -0.00679108 -0.00675324 -0.00675324 -0.00671484 -0.00671484 -0.00667591 -0.00667591 -0.00663647 -0.00663647 -0.00659656 -0.00659656 -0.00655619 -0.00655619 -0.00651539 -0.00651539 -0.00647418 -0.00647418 -0.00643258 -0.00643258 -0.00639063 -0.00639063 -0.00634832 -0.00634832 -0.0063057 -0.0063057 -0.00626276 -0.00626276 -0.00621954 -0.00621954 -0.00617605 -0.00617605 -0.0061323 -0.0061323 -0.00608831 -0.00608831 -0.0060441 -0.0060441 -0.00599968 -0.00599968 -0.00595507 -0.00595507 -0.00591028 -0.00591028 -0.00586532 -0.00586532 -0.0058202 -0.0058202 -0.00577494 -0.00577494 -0.00572955 -0.00572955 -0.00568404 -0.00568404 -0.00563841 -0.00563841 -0.00559268 -0.00559268 -0.00554686 -0.00554686 -0.00550096 -0.00550096 -0.00545499 -0.00545499 -0.00540895 -0.00540895 -0.00536285 -0.00536285 -0.0053167 -0.0053167 -0.00527051 -0.00527051 -0.00522429 -0.00522429 -0.00517803 -0.00517803 -0.00513176 -0.00513176 -0.00508546 -0.00508546 -0.00503916 -0.00503916 -0.00499285 -0.00499285 -0.00494654 -0.00494654 -0.00490024 -0.00490024 -0.00485394 -0.00485394 -0.00480767 -0.00480767 -0.00476141 -0.00476141 -0.00471517 -0.00471517 -0.00466897 -0.00466897 -0.00462279 -0.00462279 -0.00457665 -0.00457665 -0.00453055 -0.00453055 -0.0044845 -0.0044845 -0.00443849 -0.00443849 -0.00439253 -0.00439253 -0.00434662 -0.00434662 -0.00430077 -0.00430077 -0.00425498 -0.00425498 -0.00420925 -0.00420925 -0.00416359 -0.00416359 -0.00411799 -0.00411799 -0.00407247 -0.00407247 -0.00402701 -0.00402701 -0.00398164 -0.00398164 -0.00393634 -0.00393634 -0.00389113 -0.00389113 -0.003846 -0.003846 -0.00380096 -0.00380096 -0.003756 -0.003756 -0.00371114 -0.00371114 -0.00366638 -0.00366638 -0.00362171 -0.00362171 -0.00357715 -0.00357715 -0.00353269 -0.00353269 -0.00348834 -0.00348834 -0.0034441 -0.0034441 -0.00339997 -0.00339997 -0.00335596 -0.00335596 -0.00331207 -0.00331207 -0.00326831 -0.00326831 -0.00322467 -0.00322467 -0.00318116 -0.00318116 -0.00313779 -0.00313779 -0.00309456 -0.00309456 -0.00305147 -0.00305147 -0.00300853 -0.00300853 -0.00296575 -0.00296575 -0.00292311 -0.00292311 -0.00288064 -0.00288064 -0.00283834 -0.00283834 -0.0027962 -0.0027962 -0.00275424 -0.00275424 -0.00271246 -0.00271246 -0.00267086 -0.00267086 -0.00262945 -0.00262945 -0.00258824 -0.00258824 -0.00254722 -0.00254722 -0.00250641 -0.00250641 -0.00246581 -0.00246581 -0.00242542 -0.00242542 -0.00238524 -0.00238524 -0.00234529 -0.00234529 -0.00230556 -0.00230556 -0.00226606 -0.00226606 -0.0022268 -0.0022268 -0.00218777 -0.00218777 -0.00214898 -0.00214898 -0.00211043 -0.00211043 -0.00207212 -0.00207212 -0.00203405 -0.00203405 -0.00199622 -0.00199622 -0.00195864 -0.00195864 -0.0019213 -0.0019213 -0.00188419 -0.00188419 -0.00184733 -0.00184733 -0.00181069 -0.00181069 -0.00177428 -0.00177428 -0.00173809 -0.00173809 -0.00170211 -0.00170211 -0.00166633 -0.00166633 -0.00163075 -0.00163075 -0.00159535 -0.00159535 -0.00156012 -0.00156012 -0.00152504 -0.00152504 -0.0014901 -0.0014901 -0.00145528 -0.00145528 -0.00142056 -0.00142056 -0.00138592 -0.00138592 -0.00135134 -0.00135134 -0.0013168 -0.0013168 -0.00128226 -0.00128226 -0.0012477 -0.0012477 -0.00121309 -0.00121309 -0.00117841 -0.00117841 -0.00114361 -0.00114361 -0.00110866 -0.00110866 -0.00107354 -0.00107354 -0.0010382 -0.0010382 -0.00100261 -0.00100261 -0.000966719 -0.000966719 -0.000930497 -0.000930497 -0.000893902 -0.000893902 -0.000856891 -0.000856891 -0.000819421 -0.000819421 -0.000781451 -0.000781451 -0.000742937 -0.000742937 -0.000703835 -0.000703835 -0.000664103 -0.000664103 -0.000623698 -0.000623698 -0.000582577 -0.000582577 -0.000540698 -0.000540698 -0.00049802 -0.00049802 -0.000454503 -0.000454503 -0.000410109 -0.000410109 -0.0003648 -0.0003648 -0.000318541 -0.000318541 -0.000271299 -0.000271299 -0.000223041 -0.000223041 -0.000173739 -0.000173739 -0.000123367 -0.000123367 -7.19003e-05 -7.19003e-05 -1.93191e-05 -1.93191e-05 3.43945e-05 3.43945e-05 8.92546e-05 8.92546e-05 0.000145272 0.000145272 0.000202453 0.000202453 0.000260803 0.000260803 0.000320319 0.000320319 0.000380997 0.000380997 0.000442829 0.000442829 0.000505801 0.000505801 0.000569897 0.000569897 0.000635096 0.000635096 0.00070137 0.00070137 0.000768691 0.000768691 0.000837024 0.000837024 0.000906331 0.000906331 0.00097657 0.00097657 0.00104769 0.00104769 0.00111965 0.00111965 0.00119239 0.00119239 0.00126584 0.00126584 0.00133996 0.00133996 0.00141467 0.00141467 0.00148991 0.00148991 0.00156561 0.00156561 0.00164168 0.00164168 0.00171806 0.00171806 0.00179467 0.00179467 0.00187142 0.00187142 0.00194823 0.00194823 0.00202503 0.00202503 0.00210171 0.00210171 0.00217821 0.00217821 0.00225443 0.00225443 0.00233029 0.00233029 0.00240569 0.00240569 0.00248056 0.00248056 0.00255481 0.00255481 0.00262836 0.00262836 0.00270111 0.00270111 0.002773 0.002773 0.00284394 0.00284394 0.00291386 0.00291386 0.00298268 0.00298268 0.00305034 0.00305034 0.00311675 0.00311675 0.00318187 0.00318187 0.00324562 0.00324562 0.00330795 0.00330795 0.00336881 0.00336881 0.00342815 0.00342815 0.00348593 0.00348593 0.00354209 0.00354209 0.00359662 0.00359662 0.00364948 0.00364948 0.00370063 0.00370063 0.00375007 0.00375007 0.00379778 0.00379778 0.00384374 0.00384374 0.00388795 0.00388795 0.00393041 0.00393041 0.00397112 0.00397112 0.00401009 0.00401009 0.00404734 0.00404734 0.00408289 0.00408289 0.00411676 0.00411676 0.00414897 0.00414897 0.00417956 0.00417956 0.00420857 0.00420857 0.00423603 0.00423603 0.00426199 0.00426199 0.0042865 0.0042865 0.00430962 0.00430962 0.00433138 0.00433138 0.00435185 0.00435185 0.0043711 0.0043711 0.00438918 0.00438918 0.00440616 0.00440616 0.0044221 0.0044221 0.00443707 0.00443707 0.00445114 0.00445114 0.00446438 0.00446438 0.00447687 0.00447687 0.00448867 0.00448867 0.00449985 0.00449985 0.0045105 0.0045105 0.00452067 0.00452067 0.00453044 0.00453044 0.00453988 0.00453988 0.00454906 0.00454906 0.00455805 0.00455805 0.00456692 0.00456692 0.00457573 0.00457573 0.00458454 0.00458454 0.00459341 0.00459341 0.00460242 0.00460242 0.00461161 0.00461161 0.00462103 0.00462103 0.00463076 0.00463076 0.00464082 0.00464082 0.00465128 0.00465128 0.00466217 0.00466217 0.00467354 0.00467354 0.00468543 0.00468543 0.00469788 0.00469788 0.00471093 0.00471093 0.00472459 0.00472459 0.00473891 0.00473891 0.00475391 0.00475391 0.00476961 0.00476961 0.00478603 0.00478603 0.0048032 0.0048032 0.00482113 0.00482113 0.00483983 0.00483983 0.00485931 0.00485931 0.00487959 0.00487959 0.00490066 0.00490066 0.00492255 0.00492255 0.00494523 0.00494523 0.00496873 0.00496873 0.00499303 0.00499303 0.00501814 0.00501814 0.00504405 0.00504405 0.00507076 0.00507076 0.00509825 0.00509825 0.00512653 0.00512653 0.00515557 0.00515557 0.00518537 0.00518537 0.00521593 0.00521593 0.00524722 0.00524722 0.00527923 0.00527923 0.00531196 0.00531196 0.00534538 0.00534538 0.00537949 0.00537949 0.00541426 0.00541426 0.00544968 0.00544968 0.00548575 0.00548575 0.00552243 0.00552243 0.00555973 0.00555973 0.00559761 0.00559761 0.00563607 0.00563607 0.0056751 0.0056751 0.00571467 0.00571467 0.00575477 0.00575477 0.00579539 0.00579539 0.00583651 0.00583651 0.00587812 0.00587812 0.00592021 0.00592021 0.00596277 0.00596277 0.00600577 0.00600577 0.00604921 0.00604921 0.00609308 0.00609308 0.00613737 0.00613737 0.00618206 0.00618206 0.00622715 0.00622715 0.00627262 0.00627262 0.00631847 0.00631847 0.00636469 0.00636469 0.00641127 0.00641127 0.00645821 0.00645821 0.00650549 0.00650549 0.00655311 0.00655311 0.00660106 0.00660106 0.00664934 0.00664934 0.00669794 0.00669794 0.00674686 0.00674686 0.0067961 0.0067961 0.00684564 0.00684564 0.0068955 0.0068955 0.00694565 0.00694565 0.00699611 0.00699611 0.00704687 0.00704687 0.00709793 0.00709793 0.00714928 0.00714928 0.00720093 0.00720093 0.00725288 0.00725288 0.00730512 0.00730512 0.00735765 0.00735765 0.00741048 0.00741048 0.00746361 0.00746361 0.00751703 0.00751703 0.00757075 0.00757075 0.00762478 0.00762478 0.0076791 0.0076791 0.00773372 0.00773372 0.00778865 0.00778865 0.00784389 0.00784389 0.00789944 0.00789944 0.0079553 0.0079553 0.00801148 0.00801148 0.00806797 0.00806797 0.00812479 0.00812479 0.00818194 0.00818194 0.00823941 0.00823941 0.00829722 0.00829722 0.00835537 0.00835537 0.00841385 0.00841385 0.00847269 0.00847269 0.00853187 0.00853187 0.00859141 0.00859141 0.00865131 0.00865131 0.00871158 0.00871158 0.00877222 0.00877222 0.00883323 0.00883323 0.00889462 0.00889462 0.0089564 0.0089564 0.00901857 0.00901857 0.00908114 0.00908114 0.00914412 0.00914412 0.0092075 0.0092075 0.0092713 0.0092713 0.00933553 0.00933553 0.00940018 0.00940018 0.00946527 0.00946527 0.00953081 0.00953081 0.00959679 0.00959679 0.00966323 0.00966323 0.00973013 0.00973013 0.00979751 0.00979751 0.00986537 0.00986537 0.00993371 0.00993371 0.0100026 0.0100026 0.0100719 0.0100719 0.0101417 0.0101417 0.0102121 0.0102121 0.010283 0.010283 0.0103545 0.0103545 0.0104265 0.0104265 0.010499 0.010499 0.0105721 0.0105721 0.0106458 0.0106458 0.0107201 0.0107201 0.0107949 0.0107949 0.0108704 0.0108704 0.0109465 0.0109465 0.0110232 0.0110232 0.0111006 0.0111006 0.0111786 0.0111786 0.0112572 0.0112572 0.0113366 0.0113366 0.0114166 0.0114166 0.0114973 0.0114973 0.0115787 0.0115787 0.0116609 0.0116609 0.0117438 0.0117438 0.0118274 0.0118274 0.0119118 0.0119118 0.0119969 0.0119969 0.0120829 0.0120829 0.0121696 0.0121696 0.0122572 0.0122572 0.0123456 0.0123456 0.0124349 0.0124349 0.012525 0.012525 0.012616 0.012616 0.0127079 0.0127079 0.0128007 0.0128007 0.0128944 0.0128944 0.0129891 0.0129891 0.0130848 0.0130848 0.0131814 0.0131814 0.013279 0.013279 0.0133777 0.0133777 0.0134774 0.0134774 0.0135782 0.0135782 0.01368 0.01368 0.013783 0.013783 0.013887 0.013887 0.0139923 0.0139923 0.0140986 0.0140986 0.0142062 0.0142062 0.014315 0.014315 0.014425 0.014425 0.0145363 0.0145363 0.0146489 0.0146489 0.0147628 0.0147628 0.014878 0.014878 0.0149946 0.0149946 0.0151126 0.0151126 0.015232 0.015232 0.0153528 0.0153528 0.0154752 0.0154752 0.015599 0.015599 0.0157243 0.0157243 0.0158513 0.0158513 0.0159798 0.0159798 0.0161099 0.0161099 0.0162418 0.0162418 0.0163753 0.0163753 0.0165105 0.0165105 0.0166475 0.0166475 0.0167863 0.0167863 0.016927 0.016927 0.0170695 0.0170695 0.0172139 0.0172139 0.0173603 0.0173603 0.0175087 0.0175087 0.0176591 0.0176591 0.0178116 0.0178116 0.0179662 0.0179662 0.018123 0.018123 0.018282 0.018282 0.0184432 0.0184432 0.0186067 0.0186067 0.0187726 0.0187726 0.0189409 0.0189409 0.0191117 0.0191117 0.019285 0.019285 0.0194608 0.0194608 0.0196392 0.0196392 0.0198203 0.0198203 0.0200041 0.0200041 0.0201907 0.0201907 0.0203801 0.0203801 0.0205725 0.0205725 0.0207678 0.0207678 0.0209661 0.0209661 0.0211676 0.0211676 0.0213722 0.0213722 0.02158 0.02158 0.0217911 0.0217911 0.0220056 0.0220056 0.0222236 0.0222236 0.0224451 0.0224451 0.0226701 0.0226701 0.0228989 0.0228989 0.0231314 0.0231314 0.0233678 0.0233678 0.0236081 0.0236081 0.0238524 0.0238524 0.0241008 0.0241008 0.0243534 0.0243534 0.0246102 0.0246102 0.0248715 0.0248715 0.0251372 0.0251372 0.0254075 0.0254075 0.0256824 0.0256824 0.0259622 0.0259622 0.0262468 0.0262468 0.0265363 0.0265363 0.026831 0.026831 0.0271309 0.0271309 0.027436 0.027436 0.0277466 0.0277466 0.0280628 0.0280628 0.0283845 0.0283845 0.0287121 0.0287121 0.0290455 0.0290455 0.029385 0.029385 0.0297306 0.0297306 0.0300824 0.0300824 0.0304406 0.0304406 0.0308054 0.0308054 0.0311768 0.0311768 0.0315549 0.0315549 0.03194 0.03194 0.0323321 0.0323321 0.0327314 0.0327314 0.0331379 0.0331379 0.0335519 0.0335519 0.0339735 0.0339735 0.0344028 0.0344028 0.0348399 0.0348399 0.0352849 0.0352849 0.0357381 0.0357381 0.0361995 0.0361995 0.0366693 0.0366693 0.0371475 0.0371475 0.0376344 0.0376344 0.03813 0.03813 0.0386344 0.0386344 0.0391478 0.0391478 0.0396704 0.0396704 0.0402021 0.0402021 0.0407432 0.0407432 0.0412936 0.0412936 0.0418536 0.0418536 0.0424232 0.0424232 0.0430025 0.0430025 0.0435915 0.0435915 0.0441905 0.0441905 0.0447993 0.0447993 0.0454181 0.0454181 0.0460469 0.0460469 0.0466858 0.0466858 0.0473348 0.0473348 0.0479939 0.0479939 0.0486632 0.0486632 0.0493425 0.0493425 0.050032 0.050032 0.0507315 0.0507315 0.0514411 0.0514411 0.0521607 0.0521607 0.0528901 0.0528901 0.0536294 0.0536294 0.0543784 0.0543784 0.055137 0.055137 0.055905 0.055905 0.0566823 0.0566823 0.0574687 0.0574687 0.058264 0.058264 0.0590679 0.0590679 0.0598803 0.0598803 0.0607008 0.0607008 0.0615292 0.0615292 0.0623651 0.0623651 0.0632082 0.0632082 0.0640581 0.0640581 0.0649144 0.0649144 0.0657766 0.0657766 0.0666444 0.0666444 0.0675171 0.0675171 0.0683944 0.0683944 0.0692756 0.0692756 0.0701601 0.0701601 0.0710474 0.0710474 0.0719367 0.0719367 0.0728274 0.0728274 0.0737187 0.0737187 0.07461 0.07461 0.0755003 0.0755003 0.0763888 0.0763888 0.0772747 0.0772747 0.0781571 0.0781571 0.079035 0.079035 0.0799074 0.0799074 0.0807733 0.0807733 0.0816316 0.0816316 0.0824812 0.0824812 0.0833209 0.0833209 0.0841496 0.0841496 0.0849661 0.0849661 0.085769 0.085769 0.086557