# vtk DataFile Version 3.0
#This file was generated by the deal.II library on 2020/9/1 at 14:40:33
ASCII
DATASET UNSTRUCTURED_GRID

POINTS 2048 double
1.5 0 0
1.59619 0 0
1.59619 0 0
1.69238 0 0
1.69238 0 0
1.78857 0 0
1.78857 0 0
1.88477 0 0
1.88477 0 0
1.98096 0 0
1.98096 0 0
2.07715 0 0
2.07715 0 0
2.17334 0 0
2.17334 0 0
2.26953 0 0
2.26953 0 0
2.36572 0 0
2.36572 0 0
2.46191 0 0
2.46191 0 0
2.55811 0 0
2.55811 0 0
2.6543 0 0
2.6543 0 0
2.75049 0 0
2.75049 0 0
2.84668 0 0
2.84668 0 0
2.94287 0 0
2.94287 0 0
3.03906 0 0
3.03906 0 0
3.13525 0 0
3.13525 0 0
3.23145 0 0
3.23145 0 0
3.32764 0 0
3.32764 0 0
3.42383 0 0
3.42383 0 0
3.52002 0 0
3.52002 0 0
3.61621 0 0
3.61621 0 0
3.7124 0 0
3.7124 0 0
3.80859 0 0
3.80859 0 0
3.90479 0 0
3.90479 0 0
4.00098 0 0
4.00098 0 0
4.09717 0 0
4.09717 0 0
4.19336 0 0
4.19336 0 0
4.28955 0 0
4.28955 0 0
4.38574 0 0
4.38574 0 0
4.48193 0 0
4.48193 0 0
4.57812 0 0
4.57812 0 0
4.67432 0 0
4.67432 0 0
4.77051 0 0
4.77051 0 0
4.8667 0 0
4.8667 0 0
4.96289 0 0
4.96289 0 0
5.05908 0 0
5.05908 0 0
5.15527 0 0
5.15527 0 0
5.25146 0 0
5.25146 0 0
5.34766 0 0
5.34766 0 0
5.44385 0 0
5.44385 0 0
5.54004 0 0
5.54004 0 0
5.63623 0 0
5.63623 0 0
5.73242 0 0
5.73242 0 0
5.82861 0 0
5.82861 0 0
5.9248 0 0
5.9248 0 0
6.021 0 0
6.021 0 0
6.11719 0 0
6.11719 0 0
6.21338 0 0
6.21338 0 0
6.30957 0 0
6.30957 0 0
6.40576 0 0
6.40576 0 0
6.50195 0 0
6.50195 0 0
6.59814 0 0
6.59814 0 0
6.69434 0 0
6.69434 0 0
6.79053 0 0
6.79053 0 0
6.88672 0 0
6.88672 0 0
6.98291 0 0
6.98291 0 0
7.0791 0 0
7.0791 0 0
7.17529 0 0
7.17529 0 0
7.27148 0 0
7.27148 0 0
7.36768 0 0
7.36768 0 0
7.46387 0 0
7.46387 0 0
7.56006 0 0
7.56006 0 0
7.65625 0 0
7.65625 0 0
7.75244 0 0
7.75244 0 0
7.84863 0 0
7.84863 0 0
7.94482 0 0
7.94482 0 0
8.04102 0 0
8.04102 0 0
8.13721 0 0
8.13721 0 0
8.2334 0 0
8.2334 0 0
8.32959 0 0
8.32959 0 0
8.42578 0 0
8.42578 0 0
8.52197 0 0
8.52197 0 0
8.61816 0 0
8.61816 0 0
8.71436 0 0
8.71436 0 0
8.81055 0 0
8.81055 0 0
8.90674 0 0
8.90674 0 0
9.00293 0 0
9.00293 0 0
9.09912 0 0
9.09912 0 0
9.19531 0 0
9.19531 0 0
9.2915 0 0
9.2915 0 0
9.3877 0 0
9.3877 0 0
9.48389 0 0
9.48389 0 0
9.58008 0 0
9.58008 0 0
9.67627 0 0
9.67627 0 0
9.77246 0 0
9.77246 0 0
9.86865 0 0
9.86865 0 0
9.96484 0 0
9.96484 0 0
10.061 0 0
10.061 0 0
10.1572 0 0
10.1572 0 0
10.2534 0 0
10.2534 0 0
10.3496 0 0
10.3496 0 0
10.4458 0 0
10.4458 0 0
10.542 0 0
10.542 0 0
10.6382 0 0
10.6382 0 0
10.7344 0 0
10.7344 0 0
10.8306 0 0
10.8306 0 0
10.9268 0 0
10.9268 0 0
11.0229 0 0
11.0229 0 0
11.1191 0 0
11.1191 0 0
11.2153 0 0
11.2153 0 0
11.3115 0 0
11.3115 0 0
11.4077 0 0
11.4077 0 0
11.5039 0 0
11.5039 0 0
11.6001 0 0
11.6001 0 0
11.6963 0 0
11.6963 0 0
11.7925 0 0
11.7925 0 0
11.8887 0 0
11.8887 0 0
11.9849 0 0
11.9849 0 0
12.0811 0 0
12.0811 0 0
12.1772 0 0
12.1772 0 0
12.2734 0 0
12.2734 0 0
12.3696 0 0
12.3696 0 0
12.4658 0 0
12.4658 0 0
12.562 0 0
12.562 0 0
12.6582 0 0
12.6582 0 0
12.7544 0 0
12.7544 0 0
12.8506 0 0
12.8506 0 0
12.9468 0 0
12.9468 0 0
13.043 0 0
13.043 0 0
13.1392 0 0
13.1392 0 0
13.2354 0 0
13.2354 0 0
13.3315 0 0
13.3315 0 0
13.4277 0 0
13.4277 0 0
13.5239 0 0
13.5239 0 0
13.6201 0 0
13.6201 0 0
13.7163 0 0
13.7163 0 0
13.8125 0 0
13.8125 0 0
13.9087 0 0
13.9087 0 0
14.0049 0 0
14.0049 0 0
14.1011 0 0
14.1011 0 0
14.1973 0 0
14.1973 0 0
14.2935 0 0
14.2935 0 0
14.3896 0 0
14.3896 0 0
14.4858 0 0
14.4858 0 0
14.582 0 0
14.582 0 0
14.6782 0 0
14.6782 0 0
14.7744 0 0
14.7744 0 0
14.8706 0 0
14.8706 0 0
14.9668 0 0
14.9668 0 0
15.063 0 0
15.063 0 0
15.1592 0 0
15.1592 0 0
15.2554 0 0
15.2554 0 0
15.3516 0 0
15.3516 0 0
15.4478 0 0
15.4478 0 0
15.5439 0 0
15.5439 0 0
15.6401 0 0
15.6401 0 0
15.7363 0 0
15.7363 0 0
15.8325 0 0
15.8325 0 0
15.9287 0 0
15.9287 0 0
16.0249 0 0
16.0249 0 0
16.1211 0 0
16.1211 0 0
16.2173 0 0
16.2173 0 0
16.3135 0 0
16.3135 0 0
16.4097 0 0
16.4097 0 0
16.5059 0 0
16.5059 0 0
16.6021 0 0
16.6021 0 0
16.6982 0 0
16.6982 0 0
16.7944 0 0
16.7944 0 0
16.8906 0 0
16.8906 0 0
16.9868 0 0
16.9868 0 0
17.083 0 0
17.083 0 0
17.1792 0 0
17.1792 0 0
17.2754 0 0
17.2754 0 0
17.3716 0 0
17.3716 0 0
17.4678 0 0
17.4678 0 0
17.564 0 0
17.564 0 0
17.6602 0 0
17.6602 0 0
17.7563 0 0
17.7563 0 0
17.8525 0 0
17.8525 0 0
17.9487 0 0
17.9487 0 0
18.0449 0 0
18.0449 0 0
18.1411 0 0
18.1411 0 0
18.2373 0 0
18.2373 0 0
18.3335 0 0
18.3335 0 0
18.4297 0 0
18.4297 0 0
18.5259 0 0
18.5259 0 0
18.6221 0 0
18.6221 0 0
18.7183 0 0
18.7183 0 0
18.8145 0 0
18.8145 0 0
18.9106 0 0
18.9106 0 0
19.0068 0 0
19.0068 0 0
19.103 0 0
19.103 0 0
19.1992 0 0
19.1992 0 0
19.2954 0 0
19.2954 0 0
19.3916 0 0
19.3916 0 0
19.4878 0 0
19.4878 0 0
19.584 0 0
19.584 0 0
19.6802 0 0
19.6802 0 0
19.7764 0 0
19.7764 0 0
19.8726 0 0
19.8726 0 0
19.9688 0 0
19.9688 0 0
20.0649 0 0
20.0649 0 0
20.1611 0 0
20.1611 0 0
20.2573 0 0
20.2573 0 0
20.3535 0 0
20.3535 0 0
20.4497 0 0
20.4497 0 0
20.5459 0 0
20.5459 0 0
20.6421 0 0
20.6421 0 0
20.7383 0 0
20.7383 0 0
20.8345 0 0
20.8345 0 0
20.9307 0 0
20.9307 0 0
21.0269 0 0
21.0269 0 0
21.123 0 0
21.123 0 0
21.2192 0 0
21.2192 0 0
21.3154 0 0
21.3154 0 0
21.4116 0 0
21.4116 0 0
21.5078 0 0
21.5078 0 0
21.604 0 0
21.604 0 0
21.7002 0 0
21.7002 0 0
21.7964 0 0
21.7964 0 0
21.8926 0 0
21.8926 0 0
21.9888 0 0
21.9888 0 0
22.085 0 0
22.085 0 0
22.1812 0 0
22.1812 0 0
22.2773 0 0
22.2773 0 0
22.3735 0 0
22.3735 0 0
22.4697 0 0
22.4697 0 0
22.5659 0 0
22.5659 0 0
22.6621 0 0
22.6621 0 0
22.7583 0 0
22.7583 0 0
22.8545 0 0
22.8545 0 0
22.9507 0 0
22.9507 0 0
23.0469 0 0
23.0469 0 0
23.1431 0 0
23.1431 0 0
23.2393 0 0
23.2393 0 0
23.3354 0 0
23.3354 0 0
23.4316 0 0
23.4316 0 0
23.5278 0 0
23.5278 0 0
23.624 0 0
23.624 0 0
23.7202 0 0
23.7202 0 0
23.8164 0 0
23.8164 0 0
23.9126 0 0
23.9126 0 0
24.0088 0 0
24.0088 0 0
24.105 0 0
24.105 0 0
24.2012 0 0
24.2012 0 0
24.2974 0 0
24.2974 0 0
24.3936 0 0
24.3936 0 0
24.4897 0 0
24.4897 0 0
24.5859 0 0
24.5859 0 0
24.6821 0 0
24.6821 0 0
24.7783 0 0
24.7783 0 0
24.8745 0 0
24.8745 0 0
24.9707 0 0
24.9707 0 0
25.0669 0 0
25.0669 0 0
25.1631 0 0
25.1631 0 0
25.2593 0 0
25.2593 0 0
25.3555 0 0
25.3555 0 0
25.4517 0 0
25.4517 0 0
25.5479 0 0
25.5479 0 0
25.644 0 0
25.644 0 0
25.7402 0 0
25.7402 0 0
25.8364 0 0
25.8364 0 0
25.9326 0 0
25.9326 0 0
26.0288 0 0
26.0288 0 0
26.125 0 0
26.125 0 0
26.2212 0 0
26.2212 0 0
26.3174 0 0
26.3174 0 0
26.4136 0 0
26.4136 0 0
26.5098 0 0
26.5098 0 0
26.606 0 0
26.606 0 0
26.7021 0 0
26.7021 0 0
26.7983 0 0
26.7983 0 0
26.8945 0 0
26.8945 0 0
26.9907 0 0
26.9907 0 0
27.0869 0 0
27.0869 0 0
27.1831 0 0
27.1831 0 0
27.2793 0 0
27.2793 0 0
27.3755 0 0
27.3755 0 0
27.4717 0 0
27.4717 0 0
27.5679 0 0
27.5679 0 0
27.6641 0 0
27.6641 0 0
27.7603 0 0
27.7603 0 0
27.8564 0 0
27.8564 0 0
27.9526 0 0
27.9526 0 0
28.0488 0 0
28.0488 0 0
28.145 0 0
28.145 0 0
28.2412 0 0
28.2412 0 0
28.3374 0 0
28.3374 0 0
28.4336 0 0
28.4336 0 0
28.5298 0 0
28.5298 0 0
28.626 0 0
28.626 0 0
28.7222 0 0
28.7222 0 0
28.8184 0 0
28.8184 0 0
28.9146 0 0
28.9146 0 0
29.0107 0 0
29.0107 0 0
29.1069 0 0
29.1069 0 0
29.2031 0 0
29.2031 0 0
29.2993 0 0
29.2993 0 0
29.3955 0 0
29.3955 0 0
29.4917 0 0
29.4917 0 0
29.5879 0 0
29.5879 0 0
29.6841 0 0
29.6841 0 0
29.7803 0 0
29.7803 0 0
29.8765 0 0
29.8765 0 0
29.9727 0 0
29.9727 0 0
30.0688 0 0
30.0688 0 0
30.165 0 0
30.165 0 0
30.2612 0 0
30.2612 0 0
30.3574 0 0
30.3574 0 0
30.4536 0 0
30.4536 0 0
30.5498 0 0
30.5498 0 0
30.646 0 0
30.646 0 0
30.7422 0 0
30.7422 0 0
30.8384 0 0
30.8384 0 0
30.9346 0 0
30.9346 0 0
31.0308 0 0
31.0308 0 0
31.127 0 0
31.127 0 0
31.2231 0 0
31.2231 0 0
31.3193 0 0
31.3193 0 0
31.4155 0 0
31.4155 0 0
31.5117 0 0
31.5117 0 0
31.6079 0 0
31.6079 0 0
31.7041 0 0
31.7041 0 0
31.8003 0 0
31.8003 0 0
31.8965 0 0
31.8965 0 0
31.9927 0 0
31.9927 0 0
32.0889 0 0
32.0889 0 0
32.1851 0 0
32.1851 0 0
32.2812 0 0
32.2812 0 0
32.3774 0 0
32.3774 0 0
32.4736 0 0
32.4736 0 0
32.5698 0 0
32.5698 0 0
32.666 0 0
32.666 0 0
32.7622 0 0
32.7622 0 0
32.8584 0 0
32.8584 0 0
32.9546 0 0
32.9546 0 0
33.0508 0 0
33.0508 0 0
33.147 0 0
33.147 0 0
33.2432 0 0
33.2432 0 0
33.3394 0 0
33.3394 0 0
33.4355 0 0
33.4355 0 0
33.5317 0 0
33.5317 0 0
33.6279 0 0
33.6279 0 0
33.7241 0 0
33.7241 0 0
33.8203 0 0
33.8203 0 0
33.9165 0 0
33.9165 0 0
34.0127 0 0
34.0127 0 0
34.1089 0 0
34.1089 0 0
34.2051 0 0
34.2051 0 0
34.3013 0 0
34.3013 0 0
34.3975 0 0
34.3975 0 0
34.4937 0 0
34.4937 0 0
34.5898 0 0
34.5898 0 0
34.686 0 0
34.686 0 0
34.7822 0 0
34.7822 0 0
34.8784 0 0
34.8784 0 0
34.9746 0 0
34.9746 0 0
35.0708 0 0
35.0708 0 0
35.167 0 0
35.167 0 0
35.2632 0 0
35.2632 0 0
35.3594 0 0
35.3594 0 0
35.4556 0 0
35.4556 0 0
35.5518 0 0
35.5518 0 0
35.6479 0 0
35.6479 0 0
35.7441 0 0
35.7441 0 0
35.8403 0 0
35.8403 0 0
35.9365 0 0
35.9365 0 0
36.0327 0 0
36.0327 0 0
36.1289 0 0
36.1289 0 0
36.2251 0 0
36.2251 0 0
36.3213 0 0
36.3213 0 0
36.4175 0 0
36.4175 0 0
36.5137 0 0
36.5137 0 0
36.6099 0 0
36.6099 0 0
36.7061 0 0
36.7061 0 0
36.8022 0 0
36.8022 0 0
36.8984 0 0
36.8984 0 0
36.9946 0 0
36.9946 0 0
37.0908 0 0
37.0908 0 0
37.187 0 0
37.187 0 0
37.2832 0 0
37.2832 0 0
37.3794 0 0
37.3794 0 0
37.4756 0 0
37.4756 0 0
37.5718 0 0
37.5718 0 0
37.668 0 0
37.668 0 0
37.7642 0 0
37.7642 0 0
37.8604 0 0
37.8604 0 0
37.9565 0 0
37.9565 0 0
38.0527 0 0
38.0527 0 0
38.1489 0 0
38.1489 0 0
38.2451 0 0
38.2451 0 0
38.3413 0 0
38.3413 0 0
38.4375 0 0
38.4375 0 0
38.5337 0 0
38.5337 0 0
38.6299 0 0
38.6299 0 0
38.7261 0 0
38.7261 0 0
38.8223 0 0
38.8223 0 0
38.9185 0 0
38.9185 0 0
39.0146 0 0
39.0146 0 0
39.1108 0 0
39.1108 0 0
39.207 0 0
39.207 0 0
39.3032 0 0
39.3032 0 0
39.3994 0 0
39.3994 0 0
39.4956 0 0
39.4956 0 0
39.5918 0 0
39.5918 0 0
39.688 0 0
39.688 0 0
39.7842 0 0
39.7842 0 0
39.8804 0 0
39.8804 0 0
39.9766 0 0
39.9766 0 0
40.0728 0 0
40.0728 0 0
40.1689 0 0
40.1689 0 0
40.2651 0 0
40.2651 0 0
40.3613 0 0
40.3613 0 0
40.4575 0 0
40.4575 0 0
40.5537 0 0
40.5537 0 0
40.6499 0 0
40.6499 0 0
40.7461 0 0
40.7461 0 0
40.8423 0 0
40.8423 0 0
40.9385 0 0
40.9385 0 0
41.0347 0 0
41.0347 0 0
41.1309 0 0
41.1309 0 0
41.2271 0 0
41.2271 0 0
[...]
POINT_DATA 2048
SCALARS solution_0 double 1
LOOKUP_TABLE default
0.0630492 0.0631234 0.0631234 0.0631182 0.0631182 0.0630549 0.0630549 0.0629487 0.0629487 0.0628105 0.0628105 0.0626482 0.0626482 0.062468 0.062468 0.0622744 0.0622744 0.0620709 0.0620709 0.0618601 0.0618601 0.0616443 0.0616443 0.061425 0.061425 0.0612036 0.0612036 0.0609812 0.0609812 0.0607585 0.0607585 0.0605363 0.0605363 0.060315 0.060315 0.0600952 0.0600952 0.0598771 0.0598771 0.059661 0.059661 0.0594471 0.0594471 0.0592356 0.0592356 0.0590266 0.0590266 0.0588202 0.0588202 0.0586165 0.0586165 0.0584156 0.0584156 0.0582174 0.0582174 0.058022 0.058022 0.0578293 0.0578293 0.0576394 0.0576394 0.0574524 0.0574524 0.057268 0.057268 0.0570864 0.0570864 0.0569074 0.0569074 0.0567312 0.0567312 0.0565575 0.0565575 0.0563865 0.0563865 0.0562179 0.0562179 0.0560519 0.0560519 0.0558884 0.0558884 0.0557273 0.0557273 0.0555685 0.0555685 0.0554121 0.0554121 0.055258 0.055258 0.0551062 0.0551062 0.0549566 0.0549566 0.0548091 0.0548091 0.0546638 0.0546638 0.0545205 0.0545205 0.0543793 0.0543793 0.0542401 0.0542401 0.0541029 0.0541029 0.0539676 0.0539676 0.0538342 0.0538342 0.0537027 0.0537027 0.053573 0.053573 0.0534451 0.0534451 0.0533189 0.0533189 0.0531944 0.0531944 0.0530717 0.0530717 0.0529505 0.0529505 0.052831 0.052831 0.0527131 0.0527131 0.0525968 0.0525968 0.052482 0.052482 0.0523686 0.0523686 0.0522568 0.0522568 0.0521464 0.0521464 0.0520374 0.0520374 0.0519299 0.0519299 0.0518236 0.0518236 0.0517188 0.0517188 0.0516152 0.0516152 0.0515129 0.0515129 0.051412 0.051412 0.0513122 0.0513122 0.0512137 0.0512137 0.0511164 0.0511164 0.0510203 0.0510203 0.0509253 0.0509253 0.0508315 0.0508315 0.0507388 0.0507388 0.0506472 0.0506472 0.0505567 0.0505567 0.0504673 0.0504673 0.0503789 0.0503789 0.0502915 0.0502915 0.0502051 0.0502051 0.0501198 0.0501198 0.0500354 0.0500354 0.049952 0.049952 0.0498695 0.0498695 0.049788 0.049788 0.0497074 0.0497074 0.0496277 0.0496277 0.0495489 0.0495489 0.0494709 0.0494709 0.0493938 0.0493938 0.0493176 0.0493176 0.0492422 0.0492422 0.0491676 0.0491676 0.0490938 0.0490938 0.0490208 0.0490208 0.0489486 0.0489486 0.0488772 0.0488772 0.0488065 0.0488065 0.0487366 0.0487366 0.0486674 0.0486674 0.048599 0.048599 0.0485312 0.0485312 0.0484642 0.0484642 0.0483978 0.0483978 0.0483322 0.0483322 0.0482672 0.0482672 0.0482028 0.0482028 0.0481392 0.0481392 0.0480761 0.0480761 0.0480137 0.0480137 0.047952 0.047952 0.0478908 0.0478908 0.0478303 0.0478303 0.0477703 0.0477703 0.047711 0.047711 0.0476522 0.0476522 0.047594 0.047594 0.0475364 0.0475364 0.0474793 0.0474793 0.0474228 0.0474228 0.0473669 0.0473669 0.0473114 0.0473114 0.0472565 0.0472565 0.0472022 0.0472022 0.0471483 0.0471483 0.0470949 0.0470949 0.0470421 0.0470421 0.0469897 0.0469897 0.0469378 0.0469378 0.0468865 0.0468865 0.0468355 0.0468355 0.0467851 0.0467851 0.0467351 0.0467351 0.0466856 0.0466856 0.0466365 0.0466365 0.0465879 0.0465879 0.0465397 0.0465397 0.046492 0.046492 0.0464446 0.0464446 0.0463977 0.0463977 0.0463512 0.0463512 0.0463052 0.0463052 0.0462595 0.0462595 0.0462142 0.0462142 0.0461693 0.0461693 0.0461249 0.0461249 0.0460808 0.0460808 0.046037 0.046037 0.0459937 0.0459937 0.0459507 0.0459507 0.0459081 0.0459081 0.0458659 0.0458659 0.045824 0.045824 0.0457824 0.0457824 0.0457413 0.0457413 0.0457004 0.0457004 0.0456599 0.0456599 0.0456197 0.0456197 0.0455799 0.0455799 0.0455403 0.0455403 0.0455011 0.0455011 0.0454622 0.0454622 0.0454236 0.0454236 0.0453853 0.0453853 0.0453473 0.0453473 0.0453096 0.0453096 0.0452722 0.0452722 0.0452351 0.0452351 0.0451983 0.0451983 0.0451617 0.0451617 0.0451254 0.0451254 0.0450894 0.0450894 0.0450536 0.0450536 0.045018 0.045018 0.0449827 0.0449827 0.0449477 0.0449477 0.0449129 0.0449129 0.0448783 0.0448783 0.0448439 0.0448439 0.0448098 0.0448098 0.0447758 0.0447758 0.0447421 0.0447421 0.0447085 0.0447085 0.0446751 0.0446751 0.0446419 0.0446419 0.0446089 0.0446089 0.044576 0.044576 0.0445432 0.0445432 0.0445106 0.0445106 0.0444781 0.0444781 0.0444457 0.0444457 0.0444135 0.0444135 0.0443813 0.0443813 0.0443492 0.0443492 0.0443171 0.0443171 0.0442851 0.0442851 0.0442531 0.0442531 0.0442211 0.0442211 0.0441891 0.0441891 0.0441571 0.0441571 0.0441251 0.0441251 0.044093 0.044093 0.0440608 0.0440608 0.0440285 0.0440285 0.043996 0.043996 0.0439635 0.0439635 0.0439307 0.0439307 0.0438977 0.0438977 0.0438645 0.0438645 0.043831 0.043831 0.0437972 0.0437972 0.0437631 0.0437631 0.0437286 0.0437286 0.0436938 0.0436938 0.0436584 0.0436584 0.0436226 0.0436226 0.0435863 0.0435863 0.0435494 0.0435494 0.0435119 0.0435119 0.0434738 0.0434738 0.0434349 0.0434349 0.0433953 0.0433953 0.0433549 0.0433549 0.0433137 0.0433137 0.0432715 0.0432715 0.0432284 0.0432284 0.0431842 0.0431842 0.0431389 0.0431389 0.0430925 0.0430925 0.0430449 0.0430449 0.042996 0.042996 0.0429458 0.0429458 0.0428941 0.0428941 0.0428409 0.0428409 0.0427862 0.0427862 0.0427299 0.0427299 0.0426718 0.0426718 0.0426119 0.0426119 0.0425502 0.0425502 0.0424866 0.0424866 0.0424209 0.0424209 0.0423531 0.0423531 0.0422832 0.0422832 0.0422109 0.0422109 0.0421363 0.0421363 0.0420593 0.0420593 0.0419798 0.0419798 0.0418977 0.0418977 0.0418129 0.0418129 0.0417254 0.0417254 0.041635 0.041635 0.0415418 0.0415418 0.0414455 0.0414455 0.0413462 0.0413462 0.0412437 0.0412437 0.041138 0.041138 0.041029 0.041029 0.0409167 0.0409167 0.040801 0.040801 0.0406818 0.0406818 0.040559 0.040559 0.0404327 0.0404327 0.0403028 0.0403028 0.0401691 0.0401691 0.0400317 0.0400317 0.0398906 0.0398906 0.0397456 0.0397456 0.0395969 0.0395969 0.0394442 0.0394442 0.0392877 0.0392877 0.0391274 0.0391274 0.0389631 0.0389631 0.038795 0.038795 0.0386229 0.0386229 0.0384471 0.0384471 0.0382673 0.0382673 0.0380838 0.0380838 0.0378964 0.0378964 0.0377053 0.0377053 0.0375105 0.0375105 0.0373121 0.0373121 0.03711 0.03711 0.0369045 0.0369045 0.0366955 0.0366955 0.0364831 0.0364831 0.0362674 0.0362674 0.0360486 0.0360486 0.0358267 0.0358267 0.0356018 0.0356018 0.035374 0.035374 0.0351435 0.0351435 0.0349104 0.0349104 0.0346748 0.0346748 0.0344368 0.0344368 0.0341967 0.0341967 0.0339544 0.0339544 0.0337103 0.0337103 0.0334645 0.0334645 0.033217 0.033217 0.0329681 0.0329681 0.032718 0.032718 0.0324667 0.0324667 0.0322146 0.0322146 0.0319617 0.0319617 0.0317083 0.0317083 0.0314544 0.0314544 0.0312004 0.0312004 0.0309463 0.0309463 0.0306924 0.0306924 0.0304388 0.0304388 0.0301857 0.0301857 0.0299333 0.0299333 0.0296818 0.0296818 0.0294312 0.0294312 0.0291819 0.0291819 0.028934 0.028934 0.0286876 0.0286876 0.0284429 0.0284429 0.0282 0.0282 0.0279591 0.0279591 0.0277204 0.0277204 0.027484 0.027484 0.0272501 0.0272501 0.0270186 0.0270186 0.0267899 0.0267899 0.026564 0.026564 0.0263411 0.0263411 0.0261212 0.0261212 0.0259044 0.0259044 0.0256908 0.0256908 0.0254806 0.0254806 0.0252738 0.0252738 0.0250705 0.0250705 0.0248708 0.0248708 0.0246747 0.0246747 0.0244822 0.0244822 0.0242935 0.0242935 0.0241086 0.0241086 0.0239274 0.0239274 0.0237501 0.0237501 0.0235767 0.0235767 0.0234071 0.0234071 0.0232414 0.0232414 0.0230796 0.0230796 0.0229217 0.0229217 0.0227676 0.0227676 0.0226174 0.0226174 0.0224711 0.0224711 0.0223286 0.0223286 0.0221899 0.0221899 0.0220549 0.0220549 0.0219237 0.0219237 0.0217961 0.0217961 0.0216722 0.0216722 0.0215519 0.0215519 0.0214351 0.0214351 0.0213217 0.0213217 0.0212118 0.0212118 0.0211052 0.0211052 0.021002 0.021002 0.0209019 0.0209019 0.020805 0.020805 0.0207112 0.0207112 0.0206203 0.0206203 0.0205325 0.0205325 0.0204474 0.0204474 0.0203652 0.0203652 0.0202856 0.0202856 0.0202087 0.0202087 0.0201344 0.0201344 0.0200625 0.0200625 0.019993 0.019993 0.0199258 0.0199258 0.0198609 0.0198609 0.0197981 0.0197981 0.0197374 0.0197374 0.0196788 0.0196788 0.019622 0.019622 0.0195672 0.0195672 0.0195141 0.0195141 0.0194627 0.0194627 0.019413 0.019413 0.0193649 0.0193649 0.0193183 0.0193183 0.0192731 0.0192731 0.0192293 0.0192293 0.0191869 0.0191869 0.0191457 0.0191457 0.0191056 0.0191056 0.0190668 0.0190668 0.019029 0.019029 0.0189922 0.0189922 0.0189564 0.0189564 0.0189215 0.0189215 0.0188875 0.0188875 0.0188543 0.0188543 0.0188219 0.0188219 0.0187902 0.0187902 0.0187592 0.0187592 0.0187289 0.0187289 0.0186991 0.0186991 0.0186699 0.0186699 0.0186412 0.0186412 0.018613 0.018613 0.0185852 0.0185852 0.0185578 0.0185578 0.0185308 0.0185308 0.0185042 0.0185042 0.0184778 0.0184778 0.0184518 0.0184518 0.018426 0.018426 0.0184004 0.0184004 0.0183751 0.0183751 0.0183499 0.0183499 0.0183248 0.0183248 0.0182999 0.0182999 0.0182751 0.0182751 0.0182503 0.0182503 0.0182257 0.0182257 0.018201 0.018201 0.0181764 0.0181764 0.0181518 0.0181518 0.0181271 0.0181271 0.0181024 0.0181024 0.0180777 0.0180777 0.0180529 0.0180529 0.0180279 0.0180279 0.0180029 0.0180029 0.0179778 0.0179778 0.0179525 0.0179525 0.0179271 0.0179271 0.0179015 0.0179015 0.0178757 0.0178757 0.0178497 0.0178497 0.0178235 0.0178235 0.0177971 0.0177971 0.0177704 0.0177704 0.0177435 0.0177435 0.0177163 0.0177163 0.0176889 0.0176889 0.0176611 0.0176611 0.0176331 0.0176331 0.0176047 0.0176047 0.017576 0.017576 0.017547 0.017547 0.0175176 0.0175176 0.0174879 0.0174879 0.0174577 0.0174577 0.0174272 0.0174272 0.0173963 0.0173963 0.017365 0.017365 0.0173332 0.0173332 0.0173011 0.0173011 0.0172684 0.0172684 0.0172353 0.0172353 0.0172017 0.0172017 0.0171677 0.0171677 0.0171331 0.0171331 0.017098 0.017098 0.0170624 0.0170624 0.0170263 0.0170263 0.0169896 0.0169896 0.0169524 0.0169524 0.0169145 0.0169145 0.0168761 0.0168761 0.0168371 0.0168371 0.0167975 0.0167975 0.0167572 0.0167572 0.0167163 0.0167163 0.0166747 0.0166747 0.0166325 0.0166325 0.0165896 0.0165896 0.016546 0.016546 0.0165017 0.0165017 0.0164566 0.0164566 0.0164108 0.0164108 0.0163643 0.0163643 0.016317 0.016317 0.0162689 0.0162689 0.01622 0.01622 0.0161702 0.0161702 0.0161197 0.0161197 0.0160683 0.0160683 0.016016 0.016016 0.0159629 0.0159629 0.0159089 0.0159089 0.0158539 0.0158539 0.0157981 0.0157981 0.0157413 0.0157413 0.0156835 0.0156835 0.0156248 0.0156248 0.015565 0.015565 0.0155043 0.0155043 0.0154425 0.0154425 0.0153797 0.0153797 0.0153158 0.0153158 0.0152508 0.0152508 0.0151848 0.0151848 0.0151176 0.0151176 0.0150493 0.0150493 0.0149798 0.0149798 0.0149091 0.0149091 0.0148373 0.0148373 0.0147643 0.0147643 0.01469 0.01469 0.0146144 0.0146144 0.0145376 0.0145376 0.0144595 0.0144595 0.01438 0.01438 0.0142992 0.0142992 0.0142171 0.0142171 0.0141335 0.0141335 0.0140485 0.0140485 0.0139621 0.0139621 0.0138742 0.0138742 0.0137848 0.0137848 0.0136939 0.0136939 0.0136014 0.0136014 0.0135073 0.0135073 0.0134115 0.0134115 0.0133141 0.0133141 0.0132149 0.0132149 0.013114 0.013114 0.0130112 0.0130112 0.0129066 0.0129066 0.0128001 0.0128001 0.0126916 0.0126916 0.012581 0.012581 0.0124684 0.0124684 0.0123535 0.0123535 0.0122364 0.0122364 0.0121169 0.0121169 0.011995 0.011995 0.0118705 0.0118705 0.0117434 0.0117434 0.0116134 0.0116134 0.0114806 0.0114806 0.0113447 0.0113447 0.0112056 0.0112056 0.0110631 0.0110631 0.010917 0.010917 0.0107672 0.0107672 0.0106135 0.0106135 0.0104555 0.0104555 0.0102932 0.0102932 0.0101261 0.0101261 0.00995405 0.00995405 0.00977671 0.00977671 0.00959374 0.00959374 0.0094048 0.0094048 0.00920949 0.00920949 0.00900741 0.00900741 0.00879811 0.00879811 0.00858113 0.00858113 0.00835594 0.00835594 0.00812202 0.00812202 0.00787878 0.00787878 0.00762561 0.00762561 0.00736184 0.00736184 0.00708678 0.00708678 0.00679968 0.00679968 0.00649974 0.00649974 0.00618613 0.00618613 0.00585796 0.00585796 0.00551428 0.00551428 0.00515409 0.00515409 0.00477635 0.00477635 0.00437994 0.00437994 0.00396369 0.00396369 0.00352638 0.00352638 0.0030667 0.0030667 0.00258331 0.00258331 0.00207479 0.00207479 0.00153964 0.00153964 0.000976326 0.000976326 0.000383217 0.000383217 -0.000241368 -0.000241368 -0.000899184 -0.000899184 -0.00159205 -0.00159205 -0.00232186 -0.00232186 -0.00309055 -0.00309055 -0.00390016 -0.00390016 -0.00475276 -0.00475276 -0.00565049 -0.00565049 -0.00659555 -0.00659555 -0.00759021 -0.00759021 -0.00863676 -0.00863676 -0.00973758 -0.00973758 -0.0108951 -0.0108951 -0.0121116 -0.0121116 -0.0133898 -0.0133898 -0.014732 -0.014732 -0.0161409 -0.0161409 -0.0176189 -0.0176189 -0.0191686 -0.0191686 -0.0207924 -0.0207924 -0.0224931 -0.0224931 -0.024273 -0.024273 -0.0261345 -0.0261345 -0.0280802 -0.0280802 -0.0301124 -0.0301124 -0.0322333 -0.0322333 -0.0344451 -0.0344451 -0.03675 -0.03675 -0.0391499 -0.0391499 -0.0416466 -0.0416466 -0.0442418 -0.0442418 -0.046937 -0.046937 -0.0497335 -0.0497335 -0.0526324 -0.0526324 -0.0556347 -0.0556347 -0.0587408 -0.0587408 -0.0619512 -0.0619512 -0.065266 -0.065266 -0.0686848 -0.0686848 -0.072207 -0.072207 -0.0758318 -0.0758318 -0.0795577 -0.0795577 -0.0833831 -0.0833831 -0.0873056 -0.0873056 -0.0913228 -0.0913228 -0.0954314 -0.0954314 -0.0996279 -0.0996279 -0.103908 -0.103908 -0.108268 -0.108268 -0.112701 -0.112701 -0.117202 -0.117202 -0.121765 -0.121765 -0.126383 -0.126383 -0.131048 -0.131048 -0.135751 -0.135751 -0.140485 -0.140485 -0.145238 -0.145238 -0.150002 -0.150002 -0.154764 -0.154764 -0.159514 -0.159514 -0.164238 -0.164238 -0.168925 -0.168925 -0.173559 -0.173559 -0.178128 -0.178128 -0.182615 -0.182615 -0.187005 -0.187005 -0.191282 -0.191282 -0.195428 -0.195428 -0.199426 -0.199426 -0.203258 -0.203258 -0.206905 -0.206905 -0.210348 -0.210348 -0.213567 -0.213567 -0.216542 -0.216542 -0.219251 -0.219251 -0.221676 -0.221676 -0.223793 -0.223793 -0.225582 -0.225582 -0.227021 -0.227021 -0.228088 -0.228088 -0.228762 -0.228762 -0.22902 -0.22902 -0.228841 -0.228841 -0.228203 -0.228203 -0.227086 -0.227086 -0.225467 -0.225467 -0.223326 -0.223326 -0.220644 -0.220644 -0.2174 -0.2174 -0.213576 -0.213576 -0.209153 -0.209153 -0.204115 -0.204115 -0.198444 -0.198444 -0.192125 -0.192125 -0.185145 -0.185145 -0.177489 -0.177489 -0.169147 -0.169147 -0.160107 -0.160107 -0.150361 -0.150361 -0.1399 -0.1399 -0.12872 -0.12872 -0.116816 -0.116816 -0.104185 -0.104185 -0.0908277 -0.0908277 -0.0767438 -0.0767438 -0.0619371 -0.0619371 -0.0464126 -0.0464126 -0.0301775 -0.0301775 -0.0132409 -0.0132409 0.00438583 0.00438583 0.0226894 0.0226894 0.0416543 0.0416543 0.0612629 0.0612629 0.0814954 0.0814954 0.10233 0.10233 0.123743 0.123743 0.145707 0.145707 0.168196 0.168196 0.191178 0.191178 0.214623 0.214623 0.238495 0.238495 0.262759 0.262759 0.287378 0.287378 0.312313 0.312313 0.337523 0.337523 0.362965 0.362965 0.388597 0.388597 0.414374 0.414374 0.44025 0.44025 0.466178 0.466178 0.492111 0.492111 0.518 0.518 0.543797 0.543797 0.569453 0.569453 0.594918 0.594918 0.620142 0.620142 0.645077 0.645077 0.669673 0.669673 0.693881 0.693881 0.717653 0.717653 0.740942 0.740942 0.763701 0.763701 0.785884 0.785884 0.807448 0.807448 0.828349 0.828349 0.848544 0.848544 0.867996 0.867996 0.886664 0.886664 0.904514 0.904514 0.921509 0.921509 0.93762 0.93762 0.952814 0.952814 0.967065 0.967065 0.980347 0.980347 0.992637 0.992637 1.00391 1.00391 1.01416 1.01416 1.02337 1.02337 1.03151 1.03151 1.03859 1.03859 1.04459 1.04459 1.04952 1.04952 1.05337 1.05337 1.05613 1.05613 1.05782 1.05782 1.05844 1.05844 1.05801 1.05801 1.05652 1.05652 1.054 1.054 1.05046 1.05046 1.04591 1.04591 1.04039 1.04039 1.03392 1.03392 1.02651 1.02651 1.0182 1.0182 1.00901 1.00901 0.998972 0.998972 0.988122 0.988122 0.976491 0.976491 0.964113 0.964113 0.951024 0.951024 0.937259 0.937259 0.922857 0.922857 0.907855 0.907855 0.892292 0.892292 0.876208 0.876208 0.859641 0.859641 0.842631 0.842631 0.825218 0.825218 0.807442 0.807442 0.789342 0.789342 0.770956 0.770956 0.752325 0.752325 0.733485 0.733485 0.714475 0.714475 0.695331 0.695331 0.676089 0.676089 0.656784 0.656784 0.637451 0.637451 0.618122 0.618122 0.59883 0.59883 0.579605 0.579605 0.560476 0.560476 0.541472 0.541472 0.52262 0.52262 0.503945 0.503945 0.485472 0.485472 0.467223 0.467223 0.449219 0.449219 0.431481 0.431481 0.414027 0.414027 0.396874 0.396874 0.380038 0.380038 0.363532 0.363532 0.347371 0.347371 0.331565 0.331565 0.316124 0.316124 0.301058 0.301058 0.286374 0.286374 0.272078 0.272078 0.258175 0.258175 0.24467 0.24467 0.231566 0.231566 0.218863 0.218863 0.206564 0.206564 0.194667 0.194667 0.183173 0.183173 0.172077 0.172077 0.161379 0.161379 0.151075 0.151075 0.14116 0.14116 0.131629 0.131629 0.122476 0.122476 0.113697 0.113697 0.105284 0.105284 0.0972296 0.0972296 0.0895271 0.0895271 0.0821685 0.0821685 0.0751455 0.0751455 0.0684499 0.0684499 0.0620728 0.0620728 0.0560055 0.0560055 0.050239 0.050239 0.044764 0.044764 0.0395714 0.0395714 0.0346519 0.0346519 0.0299961 0.0299961 0.0255948 0.0255948 0.0214388 0.0214388 0.0175187 0.0175187 0.0138255 0.0138255 0.01035 0.01035 0.00708353 0.00708353 0.00401714 0.00401714 0.00114226 0.00114226 -0.00154956 -0.00154956 -0.00406661 -0.00406661 -0.00641696 -0.00641696 -0.00860848 -0.00860848 -0.0106488 -0.0106488 -0.0125455 -0.0125455 -0.0143057 -0.0143057 -0.0159364 -0.0159364 -0.0174444 -0.0174444 -0.0188363 -0.0188363 -0.0201182 -0.0201182 -0.0212964 -0.0212964 -0.0223767 -0.0223767 -0.0233645 -0.0233645 -0.0242654 -0.0242654 -0.0250845 -0.0250845 -0.0258267 -0.0258267 -0.0264967 -0.0264967 -0.0270989 -0.0270989 -0.0276377 -0.0276377 -0.0281172 -0.0281172 -0.0285411 -0.0285411 -0.0289133 -0.0289133 -0.0292371 -0.0292371 -0.0295158 -0.0295158 -0.0297527 -0.0297527 -0.0299506 -0.0299506 -0.0301123 -0.0301123 -0.0302405 -0.0302405 -0.0303376 -0.0303376 -0.030406 -0.030406 -0.0304478 -0.0304478 -0.0304652 -0.0304652 -0.0304601 -0.0304601 -0.0304342 -0.0304342 -0.0303892 -0.0303892 -0.0303269 -0.0303269 -0.0302485 -0.0302485 -0.0301556 -0.0301556 -0.0300494 -0.0300494 -0.0299311 -0.0299311 -0.0298018 -0.0298018 -0.0296625 -0.0296625 -0.0295143 -0.0295143 -0.0293581 -0.0293581 -0.0291945 -0.0291945 -0.0290245 -0.0290245 -0.0288487 -0.0288487 -0.0286678 -0.0286678 -0.0284824 -0.0284824 -0.028293 -0.028293 -0.0281002 -0.0281002 -0.0279043 -0.0279043 -0.027706 -0.027706 -0.0275055 -0.0275055 -0.0273032 -0.0273032 -0.0270995 -0.0270995 -0.0268946 -0.0268946 -0.0266888 -0.0266888 -0.0264824 -0.0264824 -0.0262757 -0.0262757 -0.0260687 -0.0260687 -0.0258618 -0.0258618 -0.025655 -0.025655 -0.0254485 -0.0254485 -0.0252426 -0.0252426 -0.0250372 -0.0250372 -0.0248325 -0.0248325 -0.0246286 -0.0246286 -0.0244256 -0.0244256 -0.0242236 -0.0242236 -0.0240227 -0.0240227 -0.0238228 -0.0238228 -0.0236241 -0.0236241 -0.0234266 -0.0234266 -0.0232304 -0.0232304 -0.0230354 -0.0230354 -0.0228418 -0.0228418 -0.0226495 -0.0226495 -0.0224585 -0.0224585 -0.0222689 -0.0222689 -0.0220808 -0.0220808 -0.021894 -0.021894 -0.0217086 -0.0217086 -0.0215247 -0.0215247 -0.0213422 -0.0213422 -0.021161 -0.021161 -0.0209814 -0.0209814 -0.0208031 -0.0208031 -0.0206262 -0.0206262 -0.0204508 -0.0204508 -0.0202768 -0.0202768 -0.0201041 -0.0201041 -0.0199329 -0.0199329 -0.019763 -0.019763 -0.0195945 -0.0195945 -0.0194273 -0.0194273 -0.0192615 -0.0192615 -0.0190971 -0.0190971 -0.0189339 -0.0189339 -0.0187721 -0.0187721 -0.0186116 -0.0186116 -0.0184524 -0.0184524 -0.0182944 -0.0182944 -0.0181378 -0.0181378 -0.0179824 -0.0179824 -0.0178282 -0.0178282 -0.0176752 -0.0176752 -0.0175235 -0.0175235 -0.017373 -0.017373 -0.0172236 -0.0172236 -0.0170755 -0.0170755 -0.0169285 -0.0169285 -0.0167827 -0.0167827 -0.016638 -0.016638 -0.0164944 -0.0164944 -0.016352 -0.016352 -0.0162107 -0.0162107 -0.0160704 -0.0160704 -0.0159313 -0.0159313 -0.0157932 -0.0157932 -0.0156562 -0.0156562 -0.0155202 -0.0155202 -0.0153853 -0.0153853 -0.0152514 -0.0152514 -0.0151185 -0.0151185 -0.0149866 -0.0149866 -0.0148557 -0.0148557 -0.0147258 -0.0147258 -0.0145969 -0.0145969 -0.0144689 -0.0144689 -0.0143419 -0.0143419 -0.0142158 -0.0142158 -0.0140907 -0.0140907 -0.0139665 -0.0139665 -0.0138432 -0.0138432 -0.0137208 -0.0137208 -0.0135993 -0.0135993 -0.0134787 -0.0134787 -0.0133589 -0.0133589 -0.0132401 -0.0132401 -0.0131221 -0.0131221 -0.0130049 -0.0130049 -0.0128886 -0.0128886 -0.0127731 -0.0127731 -0.0126584 -0.0126584 -0.0125446 -0.0125446 -0.0124315 -0.0124315 -0.0123193 -0.0123193 -0.0122078 -0.0122078 -0.0120972 -0.0120972 -0.0119873 -0.0119873 -0.0118781 -0.0118781 -0.0117698 -0.0117698 -0.0116621 -0.0116621 -0.0115553 -0.0115553 -0.0114