# vtk DataFile Version 3.0
#This file was generated by the deal.II library on 2020/9/1 at 14:41:36
ASCII
DATASET UNSTRUCTURED_GRID

POINTS 2048 double
1.5 0 0
1.59619 0 0
1.59619 0 0
1.69238 0 0
1.69238 0 0
1.78857 0 0
1.78857 0 0
1.88477 0 0
1.88477 0 0
1.98096 0 0
1.98096 0 0
2.07715 0 0
2.07715 0 0
2.17334 0 0
2.17334 0 0
2.26953 0 0
2.26953 0 0
2.36572 0 0
2.36572 0 0
2.46191 0 0
2.46191 0 0
2.55811 0 0
2.55811 0 0
2.6543 0 0
2.6543 0 0
2.75049 0 0
2.75049 0 0
2.84668 0 0
2.84668 0 0
2.94287 0 0
2.94287 0 0
3.03906 0 0
3.03906 0 0
3.13525 0 0
3.13525 0 0
3.23145 0 0
3.23145 0 0
3.32764 0 0
3.32764 0 0
3.42383 0 0
3.42383 0 0
3.52002 0 0
3.52002 0 0
3.61621 0 0
3.61621 0 0
3.7124 0 0
3.7124 0 0
3.80859 0 0
3.80859 0 0
3.90479 0 0
3.90479 0 0
4.00098 0 0
4.00098 0 0
4.09717 0 0
4.09717 0 0
4.19336 0 0
4.19336 0 0
4.28955 0 0
4.28955 0 0
4.38574 0 0
4.38574 0 0
4.48193 0 0
4.48193 0 0
4.57812 0 0
4.57812 0 0
4.67432 0 0
4.67432 0 0
4.77051 0 0
4.77051 0 0
4.8667 0 0
4.8667 0 0
4.96289 0 0
4.96289 0 0
5.05908 0 0
5.05908 0 0
5.15527 0 0
5.15527 0 0
5.25146 0 0
5.25146 0 0
5.34766 0 0
5.34766 0 0
5.44385 0 0
5.44385 0 0
5.54004 0 0
5.54004 0 0
5.63623 0 0
5.63623 0 0
5.73242 0 0
5.73242 0 0
5.82861 0 0
5.82861 0 0
5.9248 0 0
5.9248 0 0
6.021 0 0
6.021 0 0
6.11719 0 0
6.11719 0 0
6.21338 0 0
6.21338 0 0
6.30957 0 0
6.30957 0 0
6.40576 0 0
6.40576 0 0
6.50195 0 0
6.50195 0 0
6.59814 0 0
6.59814 0 0
6.69434 0 0
6.69434 0 0
6.79053 0 0
6.79053 0 0
6.88672 0 0
6.88672 0 0
6.98291 0 0
6.98291 0 0
7.0791 0 0
7.0791 0 0
7.17529 0 0
7.17529 0 0
7.27148 0 0
7.27148 0 0
7.36768 0 0
7.36768 0 0
7.46387 0 0
7.46387 0 0
7.56006 0 0
7.56006 0 0
7.65625 0 0
7.65625 0 0
7.75244 0 0
7.75244 0 0
7.84863 0 0
7.84863 0 0
7.94482 0 0
7.94482 0 0
8.04102 0 0
8.04102 0 0
8.13721 0 0
8.13721 0 0
8.2334 0 0
8.2334 0 0
8.32959 0 0
8.32959 0 0
8.42578 0 0
8.42578 0 0
8.52197 0 0
8.52197 0 0
8.61816 0 0
8.61816 0 0
8.71436 0 0
8.71436 0 0
8.81055 0 0
8.81055 0 0
8.90674 0 0
8.90674 0 0
9.00293 0 0
9.00293 0 0
9.09912 0 0
9.09912 0 0
9.19531 0 0
9.19531 0 0
9.2915 0 0
9.2915 0 0
9.3877 0 0
9.3877 0 0
9.48389 0 0
9.48389 0 0
9.58008 0 0
9.58008 0 0
9.67627 0 0
9.67627 0 0
9.77246 0 0
9.77246 0 0
9.86865 0 0
9.86865 0 0
9.96484 0 0
9.96484 0 0
10.061 0 0
10.061 0 0
10.1572 0 0
10.1572 0 0
10.2534 0 0
10.2534 0 0
10.3496 0 0
10.3496 0 0
10.4458 0 0
10.4458 0 0
10.542 0 0
10.542 0 0
10.6382 0 0
10.6382 0 0
10.7344 0 0
10.7344 0 0
10.8306 0 0
10.8306 0 0
10.9268 0 0
10.9268 0 0
11.0229 0 0
11.0229 0 0
11.1191 0 0
11.1191 0 0
11.2153 0 0
11.2153 0 0
11.3115 0 0
11.3115 0 0
11.4077 0 0
11.4077 0 0
11.5039 0 0
11.5039 0 0
11.6001 0 0
11.6001 0 0
11.6963 0 0
11.6963 0 0
11.7925 0 0
11.7925 0 0
11.8887 0 0
11.8887 0 0
11.9849 0 0
11.9849 0 0
12.0811 0 0
12.0811 0 0
12.1772 0 0
12.1772 0 0
12.2734 0 0
12.2734 0 0
12.3696 0 0
12.3696 0 0
12.4658 0 0
12.4658 0 0
12.562 0 0
12.562 0 0
12.6582 0 0
12.6582 0 0
12.7544 0 0
12.7544 0 0
12.8506 0 0
12.8506 0 0
12.9468 0 0
12.9468 0 0
13.043 0 0
13.043 0 0
13.1392 0 0
13.1392 0 0
13.2354 0 0
13.2354 0 0
13.3315 0 0
13.3315 0 0
13.4277 0 0
13.4277 0 0
13.5239 0 0
13.5239 0 0
13.6201 0 0
13.6201 0 0
13.7163 0 0
13.7163 0 0
13.8125 0 0
13.8125 0 0
13.9087 0 0
13.9087 0 0
14.0049 0 0
14.0049 0 0
14.1011 0 0
14.1011 0 0
14.1973 0 0
14.1973 0 0
14.2935 0 0
14.2935 0 0
14.3896 0 0
14.3896 0 0
14.4858 0 0
14.4858 0 0
14.582 0 0
14.582 0 0
14.6782 0 0
14.6782 0 0
14.7744 0 0
14.7744 0 0
14.8706 0 0
14.8706 0 0
14.9668 0 0
14.9668 0 0
15.063 0 0
15.063 0 0
15.1592 0 0
15.1592 0 0
15.2554 0 0
15.2554 0 0
15.3516 0 0
15.3516 0 0
15.4478 0 0
15.4478 0 0
15.5439 0 0
15.5439 0 0
15.6401 0 0
15.6401 0 0
15.7363 0 0
15.7363 0 0
15.8325 0 0
15.8325 0 0
15.9287 0 0
15.9287 0 0
16.0249 0 0
16.0249 0 0
16.1211 0 0
16.1211 0 0
16.2173 0 0
16.2173 0 0
16.3135 0 0
16.3135 0 0
16.4097 0 0
16.4097 0 0
16.5059 0 0
16.5059 0 0
16.6021 0 0
16.6021 0 0
16.6982 0 0
16.6982 0 0
16.7944 0 0
16.7944 0 0
16.8906 0 0
16.8906 0 0
16.9868 0 0
16.9868 0 0
17.083 0 0
17.083 0 0
17.1792 0 0
17.1792 0 0
17.2754 0 0
17.2754 0 0
17.3716 0 0
17.3716 0 0
17.4678 0 0
17.4678 0 0
17.564 0 0
17.564 0 0
17.6602 0 0
17.6602 0 0
17.7563 0 0
17.7563 0 0
17.8525 0 0
17.8525 0 0
17.9487 0 0
17.9487 0 0
18.0449 0 0
18.0449 0 0
18.1411 0 0
18.1411 0 0
18.2373 0 0
18.2373 0 0
18.3335 0 0
18.3335 0 0
18.4297 0 0
18.4297 0 0
18.5259 0 0
18.5259 0 0
18.6221 0 0
18.6221 0 0
18.7183 0 0
18.7183 0 0
18.8145 0 0
18.8145 0 0
18.9106 0 0
18.9106 0 0
19.0068 0 0
19.0068 0 0
19.103 0 0
19.103 0 0
19.1992 0 0
19.1992 0 0
19.2954 0 0
19.2954 0 0
19.3916 0 0
19.3916 0 0
19.4878 0 0
19.4878 0 0
19.584 0 0
19.584 0 0
19.6802 0 0
19.6802 0 0
19.7764 0 0
19.7764 0 0
19.8726 0 0
19.8726 0 0
19.9688 0 0
19.9688 0 0
20.0649 0 0
20.0649 0 0
20.1611 0 0
20.1611 0 0
20.2573 0 0
20.2573 0 0
20.3535 0 0
20.3535 0 0
20.4497 0 0
20.4497 0 0
20.5459 0 0
20.5459 0 0
20.6421 0 0
20.6421 0 0
20.7383 0 0
20.7383 0 0
20.8345 0 0
20.8345 0 0
20.9307 0 0
20.9307 0 0
21.0269 0 0
21.0269 0 0
21.123 0 0
21.123 0 0
21.2192 0 0
21.2192 0 0
21.3154 0 0
21.3154 0 0
21.4116 0 0
21.4116 0 0
21.5078 0 0
21.5078 0 0
21.604 0 0
21.604 0 0
21.7002 0 0
21.7002 0 0
21.7964 0 0
21.7964 0 0
21.8926 0 0
21.8926 0 0
21.9888 0 0
21.9888 0 0
22.085 0 0
22.085 0 0
22.1812 0 0
22.1812 0 0
22.2773 0 0
22.2773 0 0
22.3735 0 0
22.3735 0 0
22.4697 0 0
22.4697 0 0
22.5659 0 0
22.5659 0 0
22.6621 0 0
22.6621 0 0
22.7583 0 0
22.7583 0 0
22.8545 0 0
22.8545 0 0
22.9507 0 0
22.9507 0 0
23.0469 0 0
23.0469 0 0
23.1431 0 0
23.1431 0 0
23.2393 0 0
23.2393 0 0
23.3354 0 0
23.3354 0 0
23.4316 0 0
23.4316 0 0
23.5278 0 0
23.5278 0 0
23.624 0 0
23.624 0 0
23.7202 0 0
23.7202 0 0
23.8164 0 0
23.8164 0 0
23.9126 0 0
23.9126 0 0
24.0088 0 0
24.0088 0 0
24.105 0 0
24.105 0 0
24.2012 0 0
24.2012 0 0
24.2974 0 0
24.2974 0 0
24.3936 0 0
24.3936 0 0
24.4897 0 0
24.4897 0 0
24.5859 0 0
24.5859 0 0
24.6821 0 0
24.6821 0 0
24.7783 0 0
24.7783 0 0
24.8745 0 0
24.8745 0 0
24.9707 0 0
24.9707 0 0
25.0669 0 0
25.0669 0 0
25.1631 0 0
25.1631 0 0
25.2593 0 0
25.2593 0 0
25.3555 0 0
25.3555 0 0
25.4517 0 0
25.4517 0 0
25.5479 0 0
25.5479 0 0
25.644 0 0
25.644 0 0
25.7402 0 0
25.7402 0 0
25.8364 0 0
25.8364 0 0
25.9326 0 0
25.9326 0 0
26.0288 0 0
26.0288 0 0
26.125 0 0
26.125 0 0
26.2212 0 0
26.2212 0 0
26.3174 0 0
26.3174 0 0
26.4136 0 0
26.4136 0 0
26.5098 0 0
26.5098 0 0
26.606 0 0
26.606 0 0
26.7021 0 0
26.7021 0 0
26.7983 0 0
26.7983 0 0
26.8945 0 0
26.8945 0 0
26.9907 0 0
26.9907 0 0
27.0869 0 0
27.0869 0 0
27.1831 0 0
27.1831 0 0
27.2793 0 0
27.2793 0 0
27.3755 0 0
27.3755 0 0
27.4717 0 0
27.4717 0 0
27.5679 0 0
27.5679 0 0
27.6641 0 0
27.6641 0 0
27.7603 0 0
27.7603 0 0
27.8564 0 0
27.8564 0 0
27.9526 0 0
27.9526 0 0
28.0488 0 0
28.0488 0 0
28.145 0 0
28.145 0 0
28.2412 0 0
28.2412 0 0
28.3374 0 0
28.3374 0 0
28.4336 0 0
28.4336 0 0
28.5298 0 0
28.5298 0 0
28.626 0 0
28.626 0 0
28.7222 0 0
28.7222 0 0
28.8184 0 0
28.8184 0 0
28.9146 0 0
28.9146 0 0
29.0107 0 0
29.0107 0 0
29.1069 0 0
29.1069 0 0
29.2031 0 0
29.2031 0 0
29.2993 0 0
29.2993 0 0
29.3955 0 0
29.3955 0 0
29.4917 0 0
29.4917 0 0
29.5879 0 0
29.5879 0 0
29.6841 0 0
29.6841 0 0
29.7803 0 0
29.7803 0 0
29.8765 0 0
29.8765 0 0
29.9727 0 0
29.9727 0 0
30.0688 0 0
30.0688 0 0
30.165 0 0
30.165 0 0
30.2612 0 0
30.2612 0 0
30.3574 0 0
30.3574 0 0
30.4536 0 0
30.4536 0 0
30.5498 0 0
30.5498 0 0
30.646 0 0
30.646 0 0
30.7422 0 0
30.7422 0 0
30.8384 0 0
30.8384 0 0
30.9346 0 0
30.9346 0 0
31.0308 0 0
31.0308 0 0
31.127 0 0
31.127 0 0
31.2231 0 0
31.2231 0 0
31.3193 0 0
31.3193 0 0
31.4155 0 0
31.4155 0 0
31.5117 0 0
31.5117 0 0
31.6079 0 0
31.6079 0 0
31.7041 0 0
31.7041 0 0
31.8003 0 0
31.8003 0 0
31.8965 0 0
31.8965 0 0
31.9927 0 0
31.9927 0 0
32.0889 0 0
32.0889 0 0
32.1851 0 0
32.1851 0 0
32.2812 0 0
32.2812 0 0
32.3774 0 0
32.3774 0 0
32.4736 0 0
32.4736 0 0
32.5698 0 0
32.5698 0 0
32.666 0 0
32.666 0 0
32.7622 0 0
32.7622 0 0
32.8584 0 0
32.8584 0 0
32.9546 0 0
32.9546 0 0
33.0508 0 0
33.0508 0 0
33.147 0 0
33.147 0 0
33.2432 0 0
33.2432 0 0
33.3394 0 0
33.3394 0 0
33.4355 0 0
33.4355 0 0
33.5317 0 0
33.5317 0 0
33.6279 0 0
33.6279 0 0
33.7241 0 0
33.7241 0 0
33.8203 0 0
33.8203 0 0
33.9165 0 0
33.9165 0 0
34.0127 0 0
34.0127 0 0
34.1089 0 0
34.1089 0 0
34.2051 0 0
34.2051 0 0
34.3013 0 0
34.3013 0 0
34.3975 0 0
34.3975 0 0
34.4937 0 0
34.4937 0 0
34.5898 0 0
34.5898 0 0
34.686 0 0
34.686 0 0
34.7822 0 0
34.7822 0 0
34.8784 0 0
34.8784 0 0
34.9746 0 0
34.9746 0 0
35.0708 0 0
35.0708 0 0
35.167 0 0
35.167 0 0
35.2632 0 0
35.2632 0 0
35.3594 0 0
35.3594 0 0
35.4556 0 0
35.4556 0 0
35.5518 0 0
35.5518 0 0
35.6479 0 0
35.6479 0 0
35.7441 0 0
35.7441 0 0
35.8403 0 0
35.8403 0 0
35.9365 0 0
35.9365 0 0
36.0327 0 0
36.0327 0 0
36.1289 0 0
36.1289 0 0
36.2251 0 0
36.2251 0 0
36.3213 0 0
36.3213 0 0
36.4175 0 0
36.4175 0 0
36.5137 0 0
36.5137 0 0
36.6099 0 0
36.6099 0 0
36.7061 0 0
36.7061 0 0
36.8022 0 0
36.8022 0 0
36.8984 0 0
36.8984 0 0
36.9946 0 0
36.9946 0 0
37.0908 0 0
37.0908 0 0
37.187 0 0
37.187 0 0
37.2832 0 0
37.2832 0 0
37.3794 0 0
37.3794 0 0
37.4756 0 0
37.4756 0 0
37.5718 0 0
37.5718 0 0
37.668 0 0
37.668 0 0
37.7642 0 0
37.7642 0 0
37.8604 0 0
37.8604 0 0
37.9565 0 0
37.9565 0 0
38.0527 0 0
38.0527 0 0
38.1489 0 0
38.1489 0 0
38.2451 0 0
38.2451 0 0
38.3413 0 0
38.3413 0 0
38.4375 0 0
38.4375 0 0
38.5337 0 0
38.5337 0 0
38.6299 0 0
38.6299 0 0
38.7261 0 0
38.7261 0 0
38.8223 0 0
38.8223 0 0
38.9185 0 0
38.9185 0 0
39.0146 0 0
39.0146 0 0
39.1108 0 0
39.1108 0 0
39.207 0 0
39.207 0 0
39.3032 0 0
39.3032 0 0
39.3994 0 0
39.3994 0 0
39.4956 0 0
39.4956 0 0
39.5918 0 0
39.5918 0 0
39.688 0 0
39.688 0 0
39.7842 0 0
39.7842 0 0
39.8804 0 0
39.8804 0 0
39.9766 0 0
39.9766 0 0
40.0728 0 0
40.0728 0 0
40.1689 0 0
40.1689 0 0
40.2651 0 0
40.2651 0 0
40.3613 0 0
40.3613 0 0
40.4575 0 0
40.4575 0 0
40.5537 0 0
40.5537 0 0
40.6499 0 0
40.6499 0 0
40.7461 0 0
40.7461 0 0
40.8423 0 0
40.8423 0 0
40.9385 0 0
40.9385 0 0
41.0347 0 0
41.0347 0 0
41.1309 0 0
41.1309 0 0
41.2271 0 0
41.2271 0 0
[...]
POINT_DATA 2048
SCALARS solution_0 double 1
LOOKUP_TABLE default
0.0244452 0.0244731 0.0244731 0.0244451 0.0244451 0.0243739 0.0243739 0.0242688 0.0242688 0.0241364 0.0241364 0.0239819 0.0239819 0.0238091 0.0238091 0.023621 0.023621 0.02342 0.02342 0.023208 0.023208 0.0229865 0.0229865 0.0227566 0.0227566 0.0225193 0.0225193 0.0222755 0.0222755 0.0220259 0.0220259 0.0217711 0.0217711 0.0215115 0.0215115 0.0212477 0.0212477 0.0209799 0.0209799 0.0207086 0.0207086 0.0204342 0.0204342 0.0201568 0.0201568 0.0198769 0.0198769 0.0195948 0.0195948 0.0193106 0.0193106 0.0190248 0.0190248 0.0187377 0.0187377 0.0184495 0.0184495 0.0181606 0.0181606 0.0178713 0.0178713 0.0175821 0.0175821 0.0172933 0.0172933 0.0170053 0.0170053 0.0167185 0.0167185 0.0164335 0.0164335 0.0161508 0.0161508 0.0158707 0.0158707 0.015594 0.015594 0.0153212 0.0153212 0.0150529 0.0150529 0.0147898 0.0147898 0.0145326 0.0145326 0.014282 0.014282 0.0140389 0.0140389 0.013804 0.013804 0.0135782 0.0135782 0.0133626 0.0133626 0.0131579 0.0131579 0.0129653 0.0129653 0.0127858 0.0127858 0.0126206 0.0126206 0.0124707 0.0124707 0.0123375 0.0123375 0.0122222 0.0122222 0.0121262 0.0121262 0.0120508 0.0120508 0.0119975 0.0119975 0.0119678 0.0119678 0.0119634 0.0119634 0.0119857 0.0119857 0.0120366 0.0120366 0.0121178 0.0121178 0.012231 0.012231 0.0123783 0.0123783 0.0125614 0.0125614 0.0127825 0.0127825 0.0130437 0.0130437 0.013347 0.013347 0.0136946 0.0136946 0.0140889 0.0140889 0.0145322 0.0145322 0.0150268 0.0150268 0.0155752 0.0155752 0.01618 0.01618 0.0168436 0.0168436 0.0175688 0.0175688 0.0183583 0.0183583 0.0192147 0.0192147 0.020141 0.020141 0.0211399 0.0211399 0.0222144 0.0222144 0.0233675 0.0233675 0.0246021 0.0246021 0.0259214 0.0259214 0.0273284 0.0273284 0.0288262 0.0288262 0.0304181 0.0304181 0.0321072 0.0321072 0.0338967 0.0338967 0.0357901 0.0357901 0.0377904 0.0377904 0.039901 0.039901 0.0421253 0.0421253 0.0444666 0.0444666 0.0469281 0.0469281 0.0495132 0.0495132 0.0522252 0.0522252 0.0550675 0.0550675 0.0580432 0.0580432 0.0611557 0.0611557 0.0644082 0.0644082 0.0678038 0.0678038 0.0713458 0.0713458 0.0750372 0.0750372 0.078881 0.078881 0.0828802 0.0828802 0.0870378 0.0870378 0.0913566 0.0913566 0.0958392 0.0958392 0.100488 0.100488 0.105306 0.105306 0.110296 0.110296 0.11546 0.11546 0.120799 0.120799 0.126316 0.126316 0.132014 0.132014 0.137893 0.137893 0.143955 0.143955 0.150201 0.150201 0.156634 0.156634 0.163253 0.163253 0.170061 0.170061 0.177056 0.177056 0.18424 0.18424 0.191614 0.191614 0.199176 0.199176 0.206927 0.206927 0.214866 0.214866 0.222992 0.222992 0.231305 0.231305 0.239802 0.239802 0.248483 0.248483 0.257346 0.257346 0.266388 0.266388 0.275607 0.275607 0.284999 0.284999 0.294563 0.294563 0.304294 0.304294 0.314189 0.314189 0.324244 0.324244 0.334454 0.334454 0.344815 0.344815 0.355321 0.355321 0.365967 0.365967 0.376748 0.376748 0.387656 0.387656 0.398686 0.398686 0.409831 0.409831 0.421083 0.421083 0.432436 0.432436 0.44388 0.44388 0.455409 0.455409 0.467012 0.467012 0.478682 0.478682 0.490408 0.490408 0.502182 0.502182 0.513994 0.513994 0.525832 0.525832 0.537687 0.537687 0.549546 0.549546 0.561401 0.561401 0.573237 0.573237 0.585044 0.585044 0.59681 0.59681 0.608522 0.608522 0.620167 0.620167 0.631733 0.631733 0.643206 0.643206 0.654572 0.654572 0.665819 0.665819 0.676933 0.676933 0.687898 0.687898 0.698702 0.698702 0.70933 0.70933 0.719767 0.719767 0.729999 0.729999 0.740011 0.740011 0.749788 0.749788 0.759316 0.759316 0.76858 0.76858 0.777564 0.777564 0.786255 0.786255 0.794637 0.794637 0.802695 0.802695 0.810414 0.810414 0.817781 0.817781 0.82478 0.82478 0.831397 0.831397 0.837618 0.837618 0.843428 0.843428 0.848814 0.848814 0.853763 0.853763 0.85826 0.85826 0.862293 0.862293 0.865849 0.865849 0.868916 0.868916 0.87148 0.87148 0.873531 0.873531 0.875057 0.875057 0.876047 0.876047 0.876491 0.876491 0.876378 0.876378 0.875698 0.875698 0.874444 0.874444 0.872605 0.872605 0.870175 0.870175 0.867144 0.867144 0.863508 0.863508 0.859258 0.859258 0.85439 0.85439 0.848898 0.848898 0.842777 0.842777 0.836025 0.836025 0.828637 0.828637 0.820612 0.820612 0.811947 0.811947 0.802642 0.802642 0.792695 0.792695 0.782108 0.782108 0.770881 0.770881 0.759017 0.759017 0.746517 0.746517 0.733386 0.733386 0.719626 0.719626 0.705244 0.705244 0.690243 0.690243 0.674632 0.674632 0.658416 0.658416 0.641604 0.641604 0.624204 0.624204 0.606225 0.606225 0.587677 0.587677 0.568572 0.568572 0.548919 0.548919 0.528733 0.528733 0.508024 0.508024 0.486807 0.486807 0.465096 0.465096 0.442906 0.442906 0.420251 0.420251 0.397149 0.397149 0.373615 0.373615 0.349667 0.349667 0.325322 0.325322 0.3006 0.3006 0.275518 0.275518 0.250096 0.250096 0.224353 0.224353 0.19831 0.19831 0.171988 0.171988 0.145406 0.145406 0.118587 0.118587 0.0915529 0.0915529 0.0643246 0.0643246 0.0369246 0.0369246 0.0093754 0.0093754 -0.0183003 -0.0183003 -0.0460795 -0.0460795 -0.0739394 -0.0739394 -0.101857 -0.101857 -0.129809 -0.129809 -0.157771 -0.157771 -0.185722 -0.185722 -0.213636 -0.213636 -0.241492 -0.241492 -0.269266 -0.269266 -0.296934 -0.296934 -0.324475 -0.324475 -0.351864 -0.351864 -0.37908 -0.37908 -0.406099 -0.406099 -0.432901 -0.432901 -0.459462 -0.459462 -0.485762 -0.485762 -0.511778 -0.511778 -0.537491 -0.537491 -0.56288 -0.56288 -0.587924 -0.587924 -0.612603 -0.612603 -0.6369 -0.6369 -0.660794 -0.660794 -0.684269 -0.684269 -0.707305 -0.707305 -0.729887 -0.729887 -0.751997 -0.751997 -0.773619 -0.773619 -0.794739 -0.794739 -0.815341 -0.815341 -0.835411 -0.835411 -0.854936 -0.854936 -0.873904 -0.873904 -0.892301 -0.892301 -0.910117 -0.910117 -0.927341 -0.927341 -0.943964 -0.943964 -0.959975 -0.959975 -0.975366 -0.975366 -0.990129 -0.990129 -1.00426 -1.00426 -1.01775 -1.01775 -1.03059 -1.03059 -1.04278 -1.04278 -1.05431 -1.05431 -1.06519 -1.06519 -1.0754 -1.0754 -1.08495 -1.08495 -1.09384 -1.09384 -1.10206 -1.10206 -1.10961 -1.10961 -1.1165 -1.1165 -1.12273 -1.12273 -1.1283 -1.1283 -1.13321 -1.13321 -1.13747 -1.13747 -1.14108 -1.14108 -1.14404 -1.14404 -1.14637 -1.14637 -1.14806 -1.14806 -1.14913 -1.14913 -1.14957 -1.14957 -1.14941 -1.14941 -1.14865 -1.14865 -1.14729 -1.14729 -1.14534 -1.14534 -1.14283 -1.14283 -1.13975 -1.13975 -1.13611 -1.13611 -1.13193 -1.13193 -1.12723 -1.12723 -1.122 -1.122 -1.11627 -1.11627 -1.11004 -1.11004 -1.10334 -1.10334 -1.09617 -1.09617 -1.08854 -1.08854 -1.08047 -1.08047 -1.07198 -1.07198 -1.06307 -1.06307 -1.05377 -1.05377 -1.04409 -1.04409 -1.03403 -1.03403 -1.02362 -1.02362 -1.01288 -1.01288 -1.00181 -1.00181 -0.990425 -0.990425 -0.978751 -0.978751 -0.966798 -0.966798 -0.954581 -0.954581 -0.942115 -0.942115 -0.929414 -0.929414 -0.916495 -0.916495 -0.90337 -0.90337 -0.890056 -0.890056 -0.876566 -0.876566 -0.862916 -0.862916 -0.849119 -0.849119 -0.835189 -0.835189 -0.82114 -0.82114 -0.806987 -0.806987 -0.792742 -0.792742 -0.778419 -0.778419 -0.764032 -0.764032 -0.749591 -0.749591 -0.735112 -0.735112 -0.720605 -0.720605 -0.706083 -0.706083 -0.691557 -0.691557 -0.67704 -0.67704 -0.662541 -0.662541 -0.648073 -0.648073 -0.633646 -0.633646 -0.619269 -0.619269 -0.604954 -0.604954 -0.590709 -0.590709 -0.576544 -0.576544 -0.562467 -0.562467 -0.548488 -0.548488 -0.534615 -0.534615 -0.520855 -0.520855 -0.507217 -0.507217 -0.493707 -0.493707 -0.480333 -0.480333 -0.467101 -0.467101 -0.454018 -0.454018 -0.441088 -0.441088 -0.428319 -0.428319 -0.415715 -0.415715 -0.403281 -0.403281 -0.391022 -0.391022 -0.378942 -0.378942 -0.367046 -0.367046 -0.355336 -0.355336 -0.343816 -0.343816 -0.33249 -0.33249 -0.321359 -0.321359 -0.310427 -0.310427 -0.299696 -0.299696 -0.289168 -0.289168 -0.278844 -0.278844 -0.268726 -0.268726 -0.258814 -0.258814 -0.249111 -0.249111 -0.239615 -0.239615 -0.230329 -0.230329 -0.221251 -0.221251 -0.212383 -0.212383 -0.203723 -0.203723 -0.195271 -0.195271 -0.187027 -0.187027 -0.17899 -0.17899 -0.171158 -0.171158 -0.163531 -0.163531 -0.156107 -0.156107 -0.148884 -0.148884 -0.141861 -0.141861 -0.135036 -0.135036 -0.128407 -0.128407 -0.121972 -0.121972 -0.115728 -0.115728 -0.109674 -0.109674 -0.103806 -0.103806 -0.0981234 -0.0981234 -0.0926219 -0.0926219 -0.0872993 -0.0872993 -0.0821528 -0.0821528 -0.0771795 -0.0771795 -0.0723764 -0.0723764 -0.0677405 -0.0677405 -0.0632687 -0.0632687 -0.058958 -0.058958 -0.0548051 -0.0548051 -0.0508068 -0.0508068 -0.0469599 -0.0469599 -0.0432612 -0.0432612 -0.0397073 -0.0397073 -0.0362951 -0.0362951 -0.033021 -0.033021 -0.029882 -0.029882 -0.0268745 -0.0268745 -0.0239954 -0.0239954 -0.0212413 -0.0212413 -0.018609 -0.018609 -0.016095 -0.016095 -0.0136963 -0.0136963 -0.0114095 -0.0114095 -0.00923136 -0.00923136 -0.00715877 -0.00715877 -0.00518854 -0.00518854 -0.00331755 -0.00331755 -0.0015427 -0.0015427 0.000139069 0.000139069 0.00173076 0.00173076 0.00323535 0.00323535 0.00465577 0.00465577 0.0059949 0.0059949 0.00725558 0.00725558 0.00844058 0.00844058 0.00955265 0.00955265 0.0105945 0.0105945 0.0115687 0.0115687 0.0124778 0.0124778 0.0133245 0.0133245 0.0141111 0.0141111 0.0148401 0.0148401 0.0155138 0.0155138 0.0161345 0.0161345 0.0167045 0.0167045 0.017226 0.017226 0.017701 0.017701 0.0181317 0.0181317 0.0185202 0.0185202 0.0188682 0.0188682 0.0191779 0.0191779 0.0194509 0.0194509 0.0196891 0.0196891 0.0198943 0.0198943 0.0200681 0.0200681 0.0202122 0.0202122 0.0203281 0.0203281 0.0204174 0.0204174 0.0204815 0.0204815 0.0205219 0.0205219 0.02054 0.02054 0.020537 0.020537 0.0205142 0.0205142 0.0204729 0.0204729 0.0204143 0.0204143 0.0203394 0.0203394 0.0202495 0.0202495 0.0201454 0.0201454 0.0200283 0.0200283 0.0198991 0.0198991 0.0197587 0.0197587 0.019608 0.019608 0.0194478 0.0194478 0.019279 0.019279 0.0191024 0.0191024 0.0189185 0.0189185 0.0187283 0.0187283 0.0185323 0.0185323 0.0183311 0.0183311 0.0181254 0.0181254 0.0179157 0.0179157 0.0177026 0.0177026 0.0174866 0.0174866 0.0172682 0.0172682 0.0170478 0.0170478 0.016826 0.016826 0.016603 0.016603 0.0163793 0.0163793 0.0161552 0.0161552 0.0159311 0.0159311 0.0157073 0.0157073 0.0154842 0.0154842 0.0152619 0.0152619 0.0150408 0.0150408 0.014821 0.014821 0.0146029 0.0146029 0.0143867 0.0143867 0.0141725 0.0141725 0.0139605 0.0139605 0.0137508 0.0137508 0.0135438 0.0135438 0.0133394 0.0133394 0.0131378 0.0131378 0.0129391 0.0129391 0.0127435 0.0127435 0.012551 0.012551 0.0123617 0.0123617 0.0121757 0.0121757 0.011993 0.011993 0.0118137 0.0118137 0.0116379 0.0116379 0.0114656 0.0114656 0.0112969 0.0112969 0.0111317 0.0111317 0.0109701 0.0109701 0.010812 0.010812 0.0106576 0.0106576 0.0105068 0.0105068 0.0103597 0.0103597 0.0102161 0.0102161 0.0100761 0.0100761 0.00993972 0.00993972 0.00980688 0.00980688 0.00967759 0.00967759 0.00955181 0.00955181 0.00942952 0.00942952 0.00931069 0.00931069 0.00919527 0.00919527 0.00908324 0.00908324 0.00897455 0.00897455 0.00886916 0.00886916 0.00876703 0.00876703 0.00866811 0.00866811 0.00857235 0.00857235 0.0084797 0.0084797 0.00839012 0.00839012 0.00830354 0.00830354 0.00821991 0.00821991 0.00813917 0.00813917 0.00806128 0.00806128 0.00798616 0.00798616 0.00791377 0.00791377 0.00784404 0.00784404 0.0077769 0.0077769 0.0077123 0.0077123 0.00765017 0.00765017 0.00759044 0.00759044 0.00753306 0.00753306 0.00747796 0.00747796 0.00742506 0.00742506 0.0073743 0.0073743 0.00732562 0.00732562 0.00727894 0.00727894 0.0072342 0.0072342 0.00719133 0.00719133 0.00715024 0.00715024 0.00711088 0.00711088 0.00707318 0.00707318 0.00703705 0.00703705 0.00700243 0.00700243 0.00696924 0.00696924 0.00693741 0.00693741 0.00690687 0.00690687 0.00687753 0.00687753 0.00684933 0.00684933 0.0068222 0.0068222 0.00679604 0.00679604 0.00677079 0.00677079 0.00674637 0.00674637 0.00672271 0.00672271 0.00669972 0.00669972 0.00667732 0.00667732 0.00665545 0.00665545 0.00663401 0.00663401 0.00661294 0.00661294 0.00659214 0.00659214 0.00657155 0.00657155 0.00655108 0.00655108 0.00653066 0.00653066 0.00651019 0.00651019 0.00648961 0.00648961 0.00646883 0.00646883 0.00644777 0.00644777 0.00642636 0.00642636 0.0064045 0.0064045 0.00638213 0.00638213 0.00635915 0.00635915 0.0063355 0.0063355 0.00631108 0.00631108 0.00628583 0.00628583 0.00625966 0.00625966 0.00623249 0.00623249 0.00620424 0.00620424 0.00617484 0.00617484 0.00614421 0.00614421 0.00611227 0.00611227 0.00607895 0.00607895 0.00604417 0.00604417 0.00600785 0.00600785 0.00596993 0.00596993 0.00593032 0.00593032 0.00588896 0.00588896 0.00584578 0.00584578 0.0058007 0.0058007 0.00575366 0.00575366 0.00570459 0.00570459 0.00565342 0.00565342 0.0056001 0.0056001 0.00554455 0.00554455 0.00548671 0.00548671 0.00542654 0.00542654 0.00536396 0.00536396 0.00529892 0.00529892 0.00523137 0.00523137 0.00516126 0.00516126 0.00508854 0.00508854 0.00501315 0.00501315 0.00493505 0.00493505 0.0048542 0.0048542 0.00477056 0.00477056 0.00468409 0.00468409 0.00459475 0.00459475 0.00450251 0.00450251 0.00440734 0.00440734 0.00430921 0.00430921 0.00420809 0.00420809 0.00410397 0.00410397 0.00399681 0.00399681 0.00388662 0.00388662 0.00377336 0.00377336 0.00365703 0.00365703 0.00353763 0.00353763 0.00341515 0.00341515 0.00328958 0.00328958 0.00316094 0.00316094 0.00302922 0.00302922 0.00289443 0.00289443 0.00275659 0.00275659 0.00261571 0.00261571 0.00247181 0.00247181 0.00232491 0.00232491 0.00217504 0.00217504 0.00202223 0.00202223 0.0018665 0.0018665 0.0017079 0.0017079 0.00154647 0.00154647 0.00138225 0.00138225 0.00121528 0.00121528 0.00104562 0.00104562 0.000873312 0.000873312 0.000698424 0.000698424 0.000521013 0.000521013 0.000341141 0.000341141 0.000158877 0.000158877 -2.57084e-05 -2.57084e-05 -0.000212542 -0.000212542 -0.000401546 -0.000401546 -0.000592641 -0.000592641 -0.000785742 -0.000785742 -0.000980763 -0.000980763 -0.00117761 -0.00117761 -0.0013762 -0.0013762 -0.00157643 -0.00157643 -0.0017782 -0.0017782 -0.00198142 -0.00198142 -0.00218597 -0.00218597 -0.00239175 -0.00239175 -0.00259865 -0.00259865 -0.00280656 -0.00280656 -0.00301537 -0.00301537 -0.00322495 -0.00322495 -0.0034352 -0.0034352 -0.00364598 -0.00364598 -0.00385718 -0.00385718 -0.00406867 -0.00406867 -0.00428032 -0.00428032 -0.00449201 -0.00449201 -0.00470361 -0.00470361 -0.00491498 -0.00491498 -0.005126 -0.005126 -0.00533653 -0.00533653 -0.00554644 -0.00554644 -0.00575558 -0.00575558 -0.00596384 -0.00596384 -0.00617106 -0.00617106 -0.00637711 -0.00637711 -0.00658187 -0.00658187 -0.00678518 -0.00678518 -0.00698691 -0.00698691 -0.00718692 -0.00718692 -0.00738509 -0.00738509 -0.00758127 -0.00758127 -0.00777532 -0.00777532 -0.00796712 -0.00796712 -0.00815653 -0.00815653 -0.00834342 -0.00834342 -0.00852765 -0.00852765 -0.00870911 -0.00870911 -0.00888765 -0.00888765 -0.00906317 -0.00906317 -0.00923552 -0.00923552 -0.0094046 -0.0094046 -0.00957028 -0.00957028 -0.00973246 -0.00973246 -0.009891 -0.009891 -0.0100458 -0.0100458 -0.0101968 -0.0101968 -0.0103438 -0.0103438 -0.0104868 -0.0104868 -0.0106256 -0.0106256 -0.0107602 -0.0107602 -0.0108905 -0.0108905 -0.0110164 -0.0110164 -0.0111378 -0.0111378 -0.0112546 -0.0112546 -0.0113668 -0.0113668 -0.0114743 -0.0114743 -0.0115771 -0.0115771 -0.011675 -0.011675 -0.011768 -0.011768 -0.0118561 -0.0118561 -0.0119393 -0.0119393 -0.0120175 -0.0120175 -0.0120906 -0.0120906 -0.0121587 -0.0121587 -0.0122217 -0.0122217 -0.0122796 -0.0122796 -0.0123324 -0.0123324 -0.0123802 -0.0123802 -0.0124228 -0.0124228 -0.0124603 -0.0124603 -0.0124928 -0.0124928 -0.0125202 -0.0125202 -0.0125425 -0.0125425 -0.0125599 -0.0125599 -0.0125723 -0.0125723 -0.0125797 -0.0125797 -0.0125823 -0.0125823 -0.0125801 -0.0125801 -0.012573 -0.012573 -0.0125613 -0.0125613 -0.0125449 -0.0125449 -0.012524 -0.012524 -0.0124985 -0.0124985 -0.0124687 -0.0124687 -0.0124345 -0.0124345 -0.0123961 -0.0123961 -0.0123535 -0.0123535 -0.0123069 -0.0123069 -0.0122563 -0.0122563 -0.0122019 -0.0122019 -0.0121437 -0.0121437 -0.012082 -0.012082 -0.0120167 -0.0120167 -0.011948 -0.011948 -0.0118761 -0.0118761 -0.011801 -0.011801 -0.0117228 -0.0117228 -0.0116418 -0.0116418 -0.011558 -0.011558 -0.0114716 -0.0114716 -0.0113826 -0.0113826 -0.0112912 -0.0112912 -0.0111976 -0.0111976 -0.0111019 -0.0111019 -0.0110041 -0.0110041 -0.0109045 -0.0109045 -0.0108032 -0.0108032 -0.0107002 -0.0107002 -0.0105958 -0.0105958 -0.01049 -0.01049 -0.010383 -0.010383 -0.0102749 -0.0102749 -0.0101658 -0.0101658 -0.0100559 -0.0100559 -0.00994519 -0.00994519 -0.0098339 -0.0098339 -0.00972211 -0.00972211 -0.00960992 -0.00960992 -0.00949745 -0.00949745 -0.00938481 -0.00938481 -0.0092721 -0.0092721 -0.00915942 -0.00915942 -0.00904687 -0.00904687 -0.00893454 -0.00893454 -0.00882252 -0.00882252 -0.0087109 -0.0087109 -0.00859977 -0.00859977 -0.0084892 -0.0084892 -0.00837928 -0.00837928 -0.00827007 -0.00827007 -0.00816164 -0.00816164 -0.00805407 -0.00805407 -0.0079474 -0.0079474 -0.00784171 -0.00784171 -0.00773704 -0.00773704 -0.00763345 -0.00763345 -0.00753098 -0.00753098 -0.00742967 -0.00742967 -0.00732957 -0.00732957 -0.00723072 -0.00723072 -0.00713315 -0.00713315 -0.00703688 -0.00703688 -0.00694194 -0.00694194 -0.00684836 -0.00684836 -0.00675615 -0.00675615 -0.00666534 -0.00666534 -0.00657593 -0.00657593 -0.00648794 -0.00648794 -0.00640138 -0.00640138 -0.00631625 -0.00631625 -0.00623256 -0.00623256 -0.0061503 -0.0061503 -0.00606948 -0.00606948 -0.00599008 -0.00599008 -0.00591211 -0.00591211 -0.00583556 -0.00583556 -0.00576041 -0.00576041 -0.00568666 -0.00568666 -0.00561429 -0.00561429 -0.00554329 -0.00554329 -0.00547364 -0.00547364 -0.00540532 -0.00540532 -0.00533831 -0.00533831 -0.0052726 -0.0052726 -0.00520817 -0.00520817 -0.00514498 -0.00514498 -0.00508302 -0.00508302 -0.00502227 -0.00502227 -0.0049627 -0.0049627 -0.00490429 -0.00490429 -0.00484701 -0.00484701 -0.00479083 -0.00479083 -0.00473573 -0.00473573 -0.00468169 -0.00468169 -0.00462868 -0.00462868 -0.00457667 -0.00457667 -0.00452563 -0.00452563 -0.00447554 -0.00447554 -0.00442638 -0.00442638 -0.00437811 -0.00437811 -0.00433071 -0.00433071 -0.00428415 -0.00428415 -0.00423841 -0.00423841 -0.00419347 -0.00419347 -0.00414929 -0.00414929 -0.00410586 -0.00410586 -0.00406314 -0.00406314 -0.00402112 -0.00402112 -0.00397976 -0.00397976 -0.00393905 -0.00393905 -0.00389897 -0.00389897 -0.00385948 -0.00385948 -0.00382058 -0.00382058 -0.00378223 -0.00378223 -0.00374441 -0.00374441 -0.00370711 -0.00370711 -0.0036703 -0.0036703 -0.00363396 -0.00363396 -0.00359807 -0.00359807 -0.00356262 -0.00356262 -0.00352758 -0.00352758 -0.00349294 -0.00349294 -0.00345868 -0.00345868 -0.00342477 -0.00342477 -0.0033912 -0.0033912 -0.00335797 -0.00335797 -0.00332503 -0.00332503 -0.00329239 -0.00329239 -0.00326003 -0.00326003 -0.00322792 -0.00322792 -0.00319606 -0.00319606 -0.00316443 -0.00316443 -0.00313301 -0.00313301 -0.0031018 -0.0031018 -0.00307077 -0.00307077 -0.00303991 -0.00303991 -0.0030092 -0.0030092 -0.00297865 -0.00297865 -0.00294822 -0.00294822 -0.00291791 -0.00291791 -0.00288771 -0.00288771 -0.0028576 -0.0028576 -0.00282757 -0.00282757 -0.0027976 -0.0027976 -0.0027677 -0.0027677 -0.00273784 -0.00273784 -0.00270801 -0.00270801 -0.00267821 -0.00267821 -0.00264841 -0.00264841 -0.00261861 -0.00261861 -0.00258881 -0.00258881 -0.00255898 -0.00255898 -0.00252911 -0.00252911 -0.00249921 -0.00249921 -0.00246925 -0.00246925 -0.00243923 -0.00243923 -0.00240913 -0.00240913 -0.00237895 -0.00237895 -0.00234868 -0.00234868 -0.00231831 -0.00231831 -0.00228782 -0.00228782 -0.00225722 -0.00225722 -0.00222648 -0.00222648 -0.0021956 -0.0021956 -0.00216458 -0.00216458 -0.0021334 -0.0021334 -0.00210205 -0.00210205 -0.00207053 -0.00207053 -0.00203882 -0.00203882 -0.00200693 -0.00200693 -0.00197483 -0.00197483 -0.00194253 -0.00194253 -0.00191001 -0.00191001 -0.00187727 -0.00187727 -0.0018443 -0.0018443 -0.00181109 -0.00181109 -0.00177764 -0.00177764 -0.00174393 -0.00174393 -0.00170996 -0.00170996 -0.00167572 -0.00167572 -0.0016412 -0.0016412 -0.0016064 -0.0016064 -0.00157132 -0.00157132 -0.00153593 -0.00153593 -0.00150024 -0.00150024 -0.00146424 -0.00146424 -0.00142793 -0.00142793 -0.00139128 -0.00139128 -0.00135431 -0.00135431 -0.001317 -0.001317 -0.00127935 -0.00127935 -0.00124134 -0.00124134 -0.00120298 -0.00120298 -0.00116426 -0.00116426 -0.00112516 -0.00112516 -0.00