# vtk DataFile Version 3.0
#This file was generated by the deal.II library on 2020/9/1 at 14:41:49
ASCII
DATASET UNSTRUCTURED_GRID

POINTS 2048 double
1.5 0 0
1.59619 0 0
1.59619 0 0
1.69238 0 0
1.69238 0 0
1.78857 0 0
1.78857 0 0
1.88477 0 0
1.88477 0 0
1.98096 0 0
1.98096 0 0
2.07715 0 0
2.07715 0 0
2.17334 0 0
2.17334 0 0
2.26953 0 0
2.26953 0 0
2.36572 0 0
2.36572 0 0
2.46191 0 0
2.46191 0 0
2.55811 0 0
2.55811 0 0
2.6543 0 0
2.6543 0 0
2.75049 0 0
2.75049 0 0
2.84668 0 0
2.84668 0 0
2.94287 0 0
2.94287 0 0
3.03906 0 0
3.03906 0 0
3.13525 0 0
3.13525 0 0
3.23145 0 0
3.23145 0 0
3.32764 0 0
3.32764 0 0
3.42383 0 0
3.42383 0 0
3.52002 0 0
3.52002 0 0
3.61621 0 0
3.61621 0 0
3.7124 0 0
3.7124 0 0
3.80859 0 0
3.80859 0 0
3.90479 0 0
3.90479 0 0
4.00098 0 0
4.00098 0 0
4.09717 0 0
4.09717 0 0
4.19336 0 0
4.19336 0 0
4.28955 0 0
4.28955 0 0
4.38574 0 0
4.38574 0 0
4.48193 0 0
4.48193 0 0
4.57812 0 0
4.57812 0 0
4.67432 0 0
4.67432 0 0
4.77051 0 0
4.77051 0 0
4.8667 0 0
4.8667 0 0
4.96289 0 0
4.96289 0 0
5.05908 0 0
5.05908 0 0
5.15527 0 0
5.15527 0 0
5.25146 0 0
5.25146 0 0
5.34766 0 0
5.34766 0 0
5.44385 0 0
5.44385 0 0
5.54004 0 0
5.54004 0 0
5.63623 0 0
5.63623 0 0
5.73242 0 0
5.73242 0 0
5.82861 0 0
5.82861 0 0
5.9248 0 0
5.9248 0 0
6.021 0 0
6.021 0 0
6.11719 0 0
6.11719 0 0
6.21338 0 0
6.21338 0 0
6.30957 0 0
6.30957 0 0
6.40576 0 0
6.40576 0 0
6.50195 0 0
6.50195 0 0
6.59814 0 0
6.59814 0 0
6.69434 0 0
6.69434 0 0
6.79053 0 0
6.79053 0 0
6.88672 0 0
6.88672 0 0
6.98291 0 0
6.98291 0 0
7.0791 0 0
7.0791 0 0
7.17529 0 0
7.17529 0 0
7.27148 0 0
7.27148 0 0
7.36768 0 0
7.36768 0 0
7.46387 0 0
7.46387 0 0
7.56006 0 0
7.56006 0 0
7.65625 0 0
7.65625 0 0
7.75244 0 0
7.75244 0 0
7.84863 0 0
7.84863 0 0
7.94482 0 0
7.94482 0 0
8.04102 0 0
8.04102 0 0
8.13721 0 0
8.13721 0 0
8.2334 0 0
8.2334 0 0
8.32959 0 0
8.32959 0 0
8.42578 0 0
8.42578 0 0
8.52197 0 0
8.52197 0 0
8.61816 0 0
8.61816 0 0
8.71436 0 0
8.71436 0 0
8.81055 0 0
8.81055 0 0
8.90674 0 0
8.90674 0 0
9.00293 0 0
9.00293 0 0
9.09912 0 0
9.09912 0 0
9.19531 0 0
9.19531 0 0
9.2915 0 0
9.2915 0 0
9.3877 0 0
9.3877 0 0
9.48389 0 0
9.48389 0 0
9.58008 0 0
9.58008 0 0
9.67627 0 0
9.67627 0 0
9.77246 0 0
9.77246 0 0
9.86865 0 0
9.86865 0 0
9.96484 0 0
9.96484 0 0
10.061 0 0
10.061 0 0
10.1572 0 0
10.1572 0 0
10.2534 0 0
10.2534 0 0
10.3496 0 0
10.3496 0 0
10.4458 0 0
10.4458 0 0
10.542 0 0
10.542 0 0
10.6382 0 0
10.6382 0 0
10.7344 0 0
10.7344 0 0
10.8306 0 0
10.8306 0 0
10.9268 0 0
10.9268 0 0
11.0229 0 0
11.0229 0 0
11.1191 0 0
11.1191 0 0
11.2153 0 0
11.2153 0 0
11.3115 0 0
11.3115 0 0
11.4077 0 0
11.4077 0 0
11.5039 0 0
11.5039 0 0
11.6001 0 0
11.6001 0 0
11.6963 0 0
11.6963 0 0
11.7925 0 0
11.7925 0 0
11.8887 0 0
11.8887 0 0
11.9849 0 0
11.9849 0 0
12.0811 0 0
12.0811 0 0
12.1772 0 0
12.1772 0 0
12.2734 0 0
12.2734 0 0
12.3696 0 0
12.3696 0 0
12.4658 0 0
12.4658 0 0
12.562 0 0
12.562 0 0
12.6582 0 0
12.6582 0 0
12.7544 0 0
12.7544 0 0
12.8506 0 0
12.8506 0 0
12.9468 0 0
12.9468 0 0
13.043 0 0
13.043 0 0
13.1392 0 0
13.1392 0 0
13.2354 0 0
13.2354 0 0
13.3315 0 0
13.3315 0 0
13.4277 0 0
13.4277 0 0
13.5239 0 0
13.5239 0 0
13.6201 0 0
13.6201 0 0
13.7163 0 0
13.7163 0 0
13.8125 0 0
13.8125 0 0
13.9087 0 0
13.9087 0 0
14.0049 0 0
14.0049 0 0
14.1011 0 0
14.1011 0 0
14.1973 0 0
14.1973 0 0
14.2935 0 0
14.2935 0 0
14.3896 0 0
14.3896 0 0
14.4858 0 0
14.4858 0 0
14.582 0 0
14.582 0 0
14.6782 0 0
14.6782 0 0
14.7744 0 0
14.7744 0 0
14.8706 0 0
14.8706 0 0
14.9668 0 0
14.9668 0 0
15.063 0 0
15.063 0 0
15.1592 0 0
15.1592 0 0
15.2554 0 0
15.2554 0 0
15.3516 0 0
15.3516 0 0
15.4478 0 0
15.4478 0 0
15.5439 0 0
15.5439 0 0
15.6401 0 0
15.6401 0 0
15.7363 0 0
15.7363 0 0
15.8325 0 0
15.8325 0 0
15.9287 0 0
15.9287 0 0
16.0249 0 0
16.0249 0 0
16.1211 0 0
16.1211 0 0
16.2173 0 0
16.2173 0 0
16.3135 0 0
16.3135 0 0
16.4097 0 0
16.4097 0 0
16.5059 0 0
16.5059 0 0
16.6021 0 0
16.6021 0 0
16.6982 0 0
16.6982 0 0
16.7944 0 0
16.7944 0 0
16.8906 0 0
16.8906 0 0
16.9868 0 0
16.9868 0 0
17.083 0 0
17.083 0 0
17.1792 0 0
17.1792 0 0
17.2754 0 0
17.2754 0 0
17.3716 0 0
17.3716 0 0
17.4678 0 0
17.4678 0 0
17.564 0 0
17.564 0 0
17.6602 0 0
17.6602 0 0
17.7563 0 0
17.7563 0 0
17.8525 0 0
17.8525 0 0
17.9487 0 0
17.9487 0 0
18.0449 0 0
18.0449 0 0
18.1411 0 0
18.1411 0 0
18.2373 0 0
18.2373 0 0
18.3335 0 0
18.3335 0 0
18.4297 0 0
18.4297 0 0
18.5259 0 0
18.5259 0 0
18.6221 0 0
18.6221 0 0
18.7183 0 0
18.7183 0 0
18.8145 0 0
18.8145 0 0
18.9106 0 0
18.9106 0 0
19.0068 0 0
19.0068 0 0
19.103 0 0
19.103 0 0
19.1992 0 0
19.1992 0 0
19.2954 0 0
19.2954 0 0
19.3916 0 0
19.3916 0 0
19.4878 0 0
19.4878 0 0
19.584 0 0
19.584 0 0
19.6802 0 0
19.6802 0 0
19.7764 0 0
19.7764 0 0
19.8726 0 0
19.8726 0 0
19.9688 0 0
19.9688 0 0
20.0649 0 0
20.0649 0 0
20.1611 0 0
20.1611 0 0
20.2573 0 0
20.2573 0 0
20.3535 0 0
20.3535 0 0
20.4497 0 0
20.4497 0 0
20.5459 0 0
20.5459 0 0
20.6421 0 0
20.6421 0 0
20.7383 0 0
20.7383 0 0
20.8345 0 0
20.8345 0 0
20.9307 0 0
20.9307 0 0
21.0269 0 0
21.0269 0 0
21.123 0 0
21.123 0 0
21.2192 0 0
21.2192 0 0
21.3154 0 0
21.3154 0 0
21.4116 0 0
21.4116 0 0
21.5078 0 0
21.5078 0 0
21.604 0 0
21.604 0 0
21.7002 0 0
21.7002 0 0
21.7964 0 0
21.7964 0 0
21.8926 0 0
21.8926 0 0
21.9888 0 0
21.9888 0 0
22.085 0 0
22.085 0 0
22.1812 0 0
22.1812 0 0
22.2773 0 0
22.2773 0 0
22.3735 0 0
22.3735 0 0
22.4697 0 0
22.4697 0 0
22.5659 0 0
22.5659 0 0
22.6621 0 0
22.6621 0 0
22.7583 0 0
22.7583 0 0
22.8545 0 0
22.8545 0 0
22.9507 0 0
22.9507 0 0
23.0469 0 0
23.0469 0 0
23.1431 0 0
23.1431 0 0
23.2393 0 0
23.2393 0 0
23.3354 0 0
23.3354 0 0
23.4316 0 0
23.4316 0 0
23.5278 0 0
23.5278 0 0
23.624 0 0
23.624 0 0
23.7202 0 0
23.7202 0 0
23.8164 0 0
23.8164 0 0
23.9126 0 0
23.9126 0 0
24.0088 0 0
24.0088 0 0
24.105 0 0
24.105 0 0
24.2012 0 0
24.2012 0 0
24.2974 0 0
24.2974 0 0
24.3936 0 0
24.3936 0 0
24.4897 0 0
24.4897 0 0
24.5859 0 0
24.5859 0 0
24.6821 0 0
24.6821 0 0
24.7783 0 0
24.7783 0 0
24.8745 0 0
24.8745 0 0
24.9707 0 0
24.9707 0 0
25.0669 0 0
25.0669 0 0
25.1631 0 0
25.1631 0 0
25.2593 0 0
25.2593 0 0
25.3555 0 0
25.3555 0 0
25.4517 0 0
25.4517 0 0
25.5479 0 0
25.5479 0 0
25.644 0 0
25.644 0 0
25.7402 0 0
25.7402 0 0
25.8364 0 0
25.8364 0 0
25.9326 0 0
25.9326 0 0
26.0288 0 0
26.0288 0 0
26.125 0 0
26.125 0 0
26.2212 0 0
26.2212 0 0
26.3174 0 0
26.3174 0 0
26.4136 0 0
26.4136 0 0
26.5098 0 0
26.5098 0 0
26.606 0 0
26.606 0 0
26.7021 0 0
26.7021 0 0
26.7983 0 0
26.7983 0 0
26.8945 0 0
26.8945 0 0
26.9907 0 0
26.9907 0 0
27.0869 0 0
27.0869 0 0
27.1831 0 0
27.1831 0 0
27.2793 0 0
27.2793 0 0
27.3755 0 0
27.3755 0 0
27.4717 0 0
27.4717 0 0
27.5679 0 0
27.5679 0 0
27.6641 0 0
27.6641 0 0
27.7603 0 0
27.7603 0 0
27.8564 0 0
27.8564 0 0
27.9526 0 0
27.9526 0 0
28.0488 0 0
28.0488 0 0
28.145 0 0
28.145 0 0
28.2412 0 0
28.2412 0 0
28.3374 0 0
28.3374 0 0
28.4336 0 0
28.4336 0 0
28.5298 0 0
28.5298 0 0
28.626 0 0
28.626 0 0
28.7222 0 0
28.7222 0 0
28.8184 0 0
28.8184 0 0
28.9146 0 0
28.9146 0 0
29.0107 0 0
29.0107 0 0
29.1069 0 0
29.1069 0 0
29.2031 0 0
29.2031 0 0
29.2993 0 0
29.2993 0 0
29.3955 0 0
29.3955 0 0
29.4917 0 0
29.4917 0 0
29.5879 0 0
29.5879 0 0
29.6841 0 0
29.6841 0 0
29.7803 0 0
29.7803 0 0
29.8765 0 0
29.8765 0 0
29.9727 0 0
29.9727 0 0
30.0688 0 0
30.0688 0 0
30.165 0 0
30.165 0 0
30.2612 0 0
30.2612 0 0
30.3574 0 0
30.3574 0 0
30.4536 0 0
30.4536 0 0
30.5498 0 0
30.5498 0 0
30.646 0 0
30.646 0 0
30.7422 0 0
30.7422 0 0
30.8384 0 0
30.8384 0 0
30.9346 0 0
30.9346 0 0
31.0308 0 0
31.0308 0 0
31.127 0 0
31.127 0 0
31.2231 0 0
31.2231 0 0
31.3193 0 0
31.3193 0 0
31.4155 0 0
31.4155 0 0
31.5117 0 0
31.5117 0 0
31.6079 0 0
31.6079 0 0
31.7041 0 0
31.7041 0 0
31.8003 0 0
31.8003 0 0
31.8965 0 0
31.8965 0 0
31.9927 0 0
31.9927 0 0
32.0889 0 0
32.0889 0 0
32.1851 0 0
32.1851 0 0
32.2812 0 0
32.2812 0 0
32.3774 0 0
32.3774 0 0
32.4736 0 0
32.4736 0 0
32.5698 0 0
32.5698 0 0
32.666 0 0
32.666 0 0
32.7622 0 0
32.7622 0 0
32.8584 0 0
32.8584 0 0
32.9546 0 0
32.9546 0 0
33.0508 0 0
33.0508 0 0
33.147 0 0
33.147 0 0
33.2432 0 0
33.2432 0 0
33.3394 0 0
33.3394 0 0
33.4355 0 0
33.4355 0 0
33.5317 0 0
33.5317 0 0
33.6279 0 0
33.6279 0 0
33.7241 0 0
33.7241 0 0
33.8203 0 0
33.8203 0 0
33.9165 0 0
33.9165 0 0
34.0127 0 0
34.0127 0 0
34.1089 0 0
34.1089 0 0
34.2051 0 0
34.2051 0 0
34.3013 0 0
34.3013 0 0
34.3975 0 0
34.3975 0 0
34.4937 0 0
34.4937 0 0
34.5898 0 0
34.5898 0 0
34.686 0 0
34.686 0 0
34.7822 0 0
34.7822 0 0
34.8784 0 0
34.8784 0 0
34.9746 0 0
34.9746 0 0
35.0708 0 0
35.0708 0 0
35.167 0 0
35.167 0 0
35.2632 0 0
35.2632 0 0
35.3594 0 0
35.3594 0 0
35.4556 0 0
35.4556 0 0
35.5518 0 0
35.5518 0 0
35.6479 0 0
35.6479 0 0
35.7441 0 0
35.7441 0 0
35.8403 0 0
35.8403 0 0
35.9365 0 0
35.9365 0 0
36.0327 0 0
36.0327 0 0
36.1289 0 0
36.1289 0 0
36.2251 0 0
36.2251 0 0
36.3213 0 0
36.3213 0 0
36.4175 0 0
36.4175 0 0
36.5137 0 0
36.5137 0 0
36.6099 0 0
36.6099 0 0
36.7061 0 0
36.7061 0 0
36.8022 0 0
36.8022 0 0
36.8984 0 0
36.8984 0 0
36.9946 0 0
36.9946 0 0
37.0908 0 0
37.0908 0 0
37.187 0 0
37.187 0 0
37.2832 0 0
37.2832 0 0
37.3794 0 0
37.3794 0 0
37.4756 0 0
37.4756 0 0
37.5718 0 0
37.5718 0 0
37.668 0 0
37.668 0 0
37.7642 0 0
37.7642 0 0
37.8604 0 0
37.8604 0 0
37.9565 0 0
37.9565 0 0
38.0527 0 0
38.0527 0 0
38.1489 0 0
38.1489 0 0
38.2451 0 0
38.2451 0 0
38.3413 0 0
38.3413 0 0
38.4375 0 0
38.4375 0 0
38.5337 0 0
38.5337 0 0
38.6299 0 0
38.6299 0 0
38.7261 0 0
38.7261 0 0
38.8223 0 0
38.8223 0 0
38.9185 0 0
38.9185 0 0
39.0146 0 0
39.0146 0 0
39.1108 0 0
39.1108 0 0
39.207 0 0
39.207 0 0
39.3032 0 0
39.3032 0 0
39.3994 0 0
39.3994 0 0
39.4956 0 0
39.4956 0 0
39.5918 0 0
39.5918 0 0
39.688 0 0
39.688 0 0
39.7842 0 0
39.7842 0 0
39.8804 0 0
39.8804 0 0
39.9766 0 0
39.9766 0 0
40.0728 0 0
40.0728 0 0
40.1689 0 0
40.1689 0 0
40.2651 0 0
40.2651 0 0
40.3613 0 0
40.3613 0 0
40.4575 0 0
40.4575 0 0
40.5537 0 0
40.5537 0 0
40.6499 0 0
40.6499 0 0
40.7461 0 0
40.7461 0 0
40.8423 0 0
40.8423 0 0
40.9385 0 0
40.9385 0 0
41.0347 0 0
41.0347 0 0
41.1309 0 0
41.1309 0 0
41.2271 0 0
41.2271 0 0
[...]
POINT_DATA 2048
SCALARS solution_0 double 1
LOOKUP_TABLE default
0.0504262 0.0497567 0.0497567 0.0491071 0.0491071 0.048477 0.048477 0.0478658 0.0478658 0.0472724 0.0472724 0.0466958 0.0466958 0.046135 0.046135 0.0455889 0.0455889 0.0450566 0.0450566 0.0445372 0.0445372 0.0440299 0.0440299 0.0435339 0.0435339 0.0430484 0.0430484 0.0425729 0.0425729 0.0421067 0.0421067 0.0416493 0.0416493 0.0412002 0.0412002 0.0407588 0.0407588 0.0403248 0.0403248 0.0398978 0.0398978 0.0394775 0.0394775 0.0390633 0.0390633 0.0386552 0.0386552 0.0382528 0.0382528 0.0378558 0.0378558 0.037464 0.037464 0.0370772 0.0370772 0.0366952 0.0366952 0.0363179 0.0363179 0.035945 0.035945 0.0355765 0.0355765 0.0352122 0.0352122 0.034852 0.034852 0.0344958 0.0344958 0.0341435 0.0341435 0.0337951 0.0337951 0.0334505 0.0334505 0.0331097 0.0331097 0.0327725 0.0327725 0.0324391 0.0324391 0.0321093 0.0321093 0.0317831 0.0317831 0.0314606 0.0314606 0.0311418 0.0311418 0.0308266 0.0308266 0.0305151 0.0305151 0.0302072 0.0302072 0.0299032 0.0299032 0.0296028 0.0296028 0.0293063 0.0293063 0.0290136 0.0290136 0.0287248 0.0287248 0.0284399 0.0284399 0.028159 0.028159 0.0278821 0.0278821 0.0276093 0.0276093 0.0273406 0.0273406 0.0270761 0.0270761 0.0268159 0.0268159 0.0265599 0.0265599 0.0263083 0.0263083 0.0260611 0.0260611 0.0258184 0.0258184 0.0255802 0.0255802 0.0253465 0.0253465 0.0251174 0.0251174 0.024893 0.024893 0.0246733 0.0246733 0.0244583 0.0244583 0.0242481 0.0242481 0.0240427 0.0240427 0.0238421 0.0238421 0.0236464 0.0236464 0.0234556 0.0234556 0.0232696 0.0232696 0.0230886 0.0230886 0.0229125 0.0229125 0.0227413 0.0227413 0.0225751 0.0225751 0.0224137 0.0224137 0.0222573 0.0222573 0.0221058 0.0221058 0.0219592 0.0219592 0.0218174 0.0218174 0.0216805 0.0216805 0.0215484 0.0215484 0.021421 0.021421 0.0212983 0.0212983 0.0211804 0.0211804 0.021067 0.021067 0.0209582 0.0209582 0.020854 0.020854 0.0207542 0.0207542 0.0206587 0.0206587 0.0205676 0.0205676 0.0204808 0.0204808 0.0203981 0.0203981 0.0203195 0.0203195 0.0202448 0.0202448 0.0201742 0.0201742 0.0201073 0.0201073 0.0200442 0.0200442 0.0199847 0.0199847 0.0199288 0.0199288 0.0198764 0.0198764 0.0198273 0.0198273 0.0197815 0.0197815 0.0197388 0.0197388 0.0196993 0.0196993 0.0196627 0.0196627 0.019629 0.019629 0.019598 0.019598 0.0195698 0.0195698 0.0195441 0.0195441 0.0195209 0.0195209 0.0195001 0.0195001 0.0194816 0.0194816 0.0194653 0.0194653 0.0194511 0.0194511 0.0194389 0.0194389 0.0194287 0.0194287 0.0194203 0.0194203 0.0194136 0.0194136 0.0194087 0.0194087 0.0194053 0.0194053 0.0194035 0.0194035 0.0194031 0.0194031 0.0194041 0.0194041 0.0194064 0.0194064 0.01941 0.01941 0.0194147 0.0194147 0.0194206 0.0194206 0.0194276 0.0194276 0.0194355 0.0194355 0.0194445 0.0194445 0.0194544 0.0194544 0.0194651 0.0194651 0.0194767 0.0194767 0.0194892 0.0194892 0.0195024 0.0195024 0.0195163 0.0195163 0.019531 0.019531 0.0195464 0.0195464 0.0195625 0.0195625 0.0195792 0.0195792 0.0195966 0.0195966 0.0196146 0.0196146 0.0196332 0.0196332 0.0196525 0.0196525 0.0196724 0.0196724 0.019693 0.019693 0.0197141 0.0197141 0.0197359 0.0197359 0.0197583 0.0197583 0.0197814 0.0197814 0.0198051 0.0198051 0.0198295 0.0198295 0.0198546 0.0198546 0.0198803 0.0198803 0.0199068 0.0199068 0.019934 0.019934 0.019962 0.019962 0.0199908 0.0199908 0.0200203 0.0200203 0.0200507 0.0200507 0.0200819 0.0200819 0.0201139 0.0201139 0.0201469 0.0201469 0.0201808 0.0201808 0.0202156 0.0202156 0.0202514 0.0202514 0.0202882 0.0202882 0.0203259 0.0203259 0.0203648 0.0203648 0.0204047 0.0204047 0.0204457 0.0204457 0.0204878 0.0204878 0.0205311 0.0205311 0.0205755 0.0205755 0.0206211 0.0206211 0.0206679 0.0206679 0.0207159 0.0207159 0.0207652 0.0207652 0.0208158 0.0208158 0.0208676 0.0208676 0.0209207 0.0209207 0.0209752 0.0209752 0.021031 0.021031 0.0210881 0.0210881 0.0211465 0.0211465 0.0212063 0.0212063 0.0212675 0.0212675 0.0213301 0.0213301 0.021394 0.021394 0.0214593 0.0214593 0.0215259 0.0215259 0.021594 0.021594 0.0216634 0.0216634 0.0217342 0.0217342 0.0218063 0.0218063 0.0218798 0.0218798 0.0219546 0.0219546 0.0220307 0.0220307 0.0221082 0.0221082 0.0221869 0.0221869 0.0222669 0.0222669 0.0223482 0.0223482 0.0224306 0.0224306 0.0225143 0.0225143 0.0225991 0.0225991 0.0226851 0.0226851 0.0227721 0.0227721 0.0228603 0.0228603 0.0229494 0.0229494 0.0230396 0.0230396 0.0231306 0.0231306 0.0232226 0.0232226 0.0233155 0.0233155 0.0234091 0.0234091 0.0235035 0.0235035 0.0235986 0.0235986 0.0236943 0.0236943 0.0237906 0.0237906 0.0238875 0.0238875 0.0239848 0.0239848 0.0240824 0.0240824 0.0241804 0.0241804 0.0242787 0.0242787 0.0243771 0.0243771 0.0244757 0.0244757 0.0245743 0.0245743 0.0246728 0.0246728 0.0247712 0.0247712 0.0248694 0.0248694 0.0249672 0.0249672 0.0250647 0.0250647 0.0251617 0.0251617 0.0252582 0.0252582 0.0253539 0.0253539 0.025449 0.025449 0.0255431 0.0255431 0.0256363 0.0256363 0.0257285 0.0257285 0.0258195 0.0258195 0.0259092 0.0259092 0.0259975 0.0259975 0.0260844 0.0260844 0.0261697 0.0261697 0.0262533 0.0262533 0.026335 0.026335 0.0264149 0.0264149 0.0264927 0.0264927 0.0265683 0.0265683 0.0266417 0.0266417 0.0267126 0.0267126 0.0267811 0.0267811 0.0268469 0.0268469 0.02691 0.02691 0.0269701 0.0269701 0.0270273 0.0270273 0.0270814 0.0270814 0.0271322 0.0271322 0.0271796 0.0271796 0.0272235 0.0272235 0.0272639 0.0272639 0.0273004 0.0273004 0.0273331 0.0273331 0.0273618 0.0273618 0.0273864 0.0273864 0.0274068 0.0274068 0.0274227 0.0274227 0.0274342 0.0274342 0.0274411 0.0274411 0.0274433 0.0274433 0.0274406 0.0274406 0.0274329 0.0274329 0.0274202 0.0274202 0.0274022 0.0274022 0.0273789 0.0273789 0.0273502 0.0273502 0.027316 0.027316 0.0272761 0.0272761 0.0272305 0.0272305 0.0271789 0.0271789 0.0271215 0.0271215 0.0270579 0.0270579 0.0269882 0.0269882 0.0269123 0.0269123 0.02683 0.02683 0.0267412 0.0267412 0.0266459 0.0266459 0.0265441 0.0265441 0.0264355 0.0264355 0.0263202 0.0263202 0.026198 0.026198 0.026069 0.026069 0.0259329 0.0259329 0.0257899 0.0257899 0.0256397 0.0256397 0.0254825 0.0254825 0.025318 0.025318 0.0251463 0.0251463 0.0249674 0.0249674 0.0247812 0.0247812 0.0245876 0.0245876 0.0243867 0.0243867 0.0241785 0.0241785 0.0239628 0.0239628 0.0237399 0.0237399 0.0235095 0.0235095 0.0232717 0.0232717 0.0230266 0.0230266 0.0227742 0.0227742 0.0225144 0.0225144 0.0222474 0.0222474 0.0219731 0.0219731 0.0216916 0.0216916 0.021403 0.021403 0.0211072 0.0211072 0.0208045 0.0208045 0.0204948 0.0204948 0.0201782 0.0201782 0.0198548 0.0198548 0.0195248 0.0195248 0.0191881 0.0191881 0.018845 0.018845 0.0184955 0.0184955 0.0181398 0.0181398 0.0177781 0.0177781 0.0174103 0.0174103 0.0170368 0.0170368 0.0166577 0.0166577 0.0162731 0.0162731 0.0158832 0.0158832 0.0154883 0.0154883 0.0150884 0.0150884 0.014684 0.014684 0.014275 0.014275 0.0138619 0.0138619 0.0134448 0.0134448 0.013024 0.013024 0.0125997 0.0125997 0.0121723 0.0121723 0.0117419 0.0117419 0.011309 0.011309 0.0108738 0.0108738 0.0104367 0.0104367 0.00999789 0.00999789 0.00955785 0.00955785 0.00911689 0.00911689 0.0086754 0.0086754 0.00823376 0.00823376 0.00779237 0.00779237 0.00735164 0.00735164 0.00691201 0.00691201 0.00647392 0.00647392 0.00603784 0.00603784 0.00560422 0.00560422 0.00517356 0.00517356 0.00474638 0.00474638 0.00432318 0.00432318 0.00390451 0.00390451 0.00349093 0.00349093 0.003083 0.003083 0.00268131 0.00268131 0.00228647 0.00228647 0.00189911 0.00189911 0.00151987 0.00151987 0.00114941 0.00114941 0.000788413 0.000788413 0.000437578 0.000437578 9.7627e-05 9.7627e-05 -0.000230701 -0.000230701 -0.000546645 -0.000546645 -0.000849425 -0.000849425 -0.00113824 -0.00113824 -0.00141226 -0.00141226 -0.00167065 -0.00167065 -0.00191254 -0.00191254 -0.00213704 -0.00213704 -0.00234325 -0.00234325 -0.00253022 -0.00253022 -0.00269701 -0.00269701 -0.00284264 -0.00284264 -0.00296611 -0.00296611 -0.00306639 -0.00306639 -0.00314244 -0.00314244 -0.00319319 -0.00319319 -0.00321755 -0.00321755 -0.0032144 -0.0032144 -0.0031826 -0.0031826 -0.003121 -0.003121 -0.0030284 -0.0030284 -0.00290361 -0.00290361 -0.00274538 -0.00274538 -0.00255248 -0.00255248 -0.00232361 -0.00232361 -0.0020575 -0.0020575 -0.00175282 -0.00175282 -0.00140823 -0.00140823 -0.00102237 -0.00102237 -0.000593864 -0.000593864 -0.000121317 -0.000121317 0.000396692 0.000396692 0.000961596 0.000961596 0.00157485 0.00157485 0.00223792 0.00223792 0.00295229 0.00295229 0.00371946 0.00371946 0.00454094 0.00454094 0.00541826 0.00541826 0.00635296 0.00635296 0.00734656 0.00734656 0.00840064 0.00840064 0.00951675 0.00951675 0.0106965 0.0106965 0.0119413 0.0119413 0.013253 0.013253 0.0146329 0.0146329 0.0160827 0.0160827 0.017604 0.017604 0.0191983 0.0191983 0.0208671 0.0208671 0.0226121 0.0226121 0.0244347 0.0244347 0.0263365 0.0263365 0.0283189 0.0283189 0.0303835 0.0303835 0.0325317 0.0325317 0.034765 0.034765 0.0370847 0.0370847 0.0394923 0.0394923 0.041989 0.041989 0.0445763 0.0445763 0.0472553 0.0472553 0.0500273 0.0500273 0.0528934 0.0528934 0.0558549 0.0558549 0.0589127 0.0589127 0.062068 0.062068 0.0653216 0.0653216 0.0686746 0.0686746 0.0721276 0.0721276 0.0756815 0.0756815 0.079337 0.079337 0.0830947 0.0830947 0.0869551 0.0869551 0.0909187 0.0909187 0.0949859 0.0949859 0.0991569 0.0991569 0.103432 0.103432 0.107811 0.107811 0.112294 0.112294 0.116881 0.116881 0.121572 0.121572 0.126366 0.126366 0.131263 0.131263 0.136262 0.136262 0.141363 0.141363 0.146565 0.146565 0.151866 0.151866 0.157266 0.157266 0.162763 0.162763 0.168356 0.168356 0.174044 0.174044 0.179825 0.179825 0.185696 0.185696 0.191657 0.191657 0.197705 0.197705 0.203837 0.203837 0.210051 0.210051 0.216345 0.216345 0.222716 0.222716 0.229161 0.229161 0.235676 0.235676 0.242259 0.242259 0.248907 0.248907 0.255614 0.255614 0.262379 0.262379 0.269197 0.269197 0.276063 0.276063 0.282974 0.282974 0.289926 0.289926 0.296913 0.296913 0.30393 0.30393 0.310974 0.310974 0.318039 0.318039 0.325119 0.325119 0.33221 0.33221 0.339305 0.339305 0.346399 0.346399 0.353487 0.353487 0.360562 0.360562 0.367617 0.367617 0.374648 0.374648 0.381647 0.381647 0.388608 0.388608 0.395524 0.395524 0.402389 0.402389 0.409195 0.409195 0.415935 0.415935 0.422603 0.422603 0.429192 0.429192 0.435693 0.435693 0.4421 0.4421 0.448405 0.448405 0.454601 0.454601 0.460679 0.460679 0.466634 0.466634 0.472456 0.472456 0.478138 0.478138 0.483672 0.483672 0.489051 0.489051 0.494267 0.494267 0.499312 0.499312 0.504179 0.504179 0.508859 0.508859 0.513345 0.513345 0.517629 0.517629 0.521704 0.521704 0.525563 0.525563 0.529197 0.529197 0.532599 0.532599 0.535762 0.535762 0.538679 0.538679 0.541343 0.541343 0.543747 0.543747 0.545884 0.545884 0.547747 0.547747 0.549329 0.549329 0.550625 0.550625 0.551629 0.551629 0.552333 0.552333 0.552734 0.552734 0.552824 0.552824 0.552598 0.552598 0.552052 0.552052 0.55118 0.55118 0.549978 0.549978 0.548442 0.548442 0.546567 0.546567 0.544349 0.544349 0.541785 0.541785 0.538871 0.538871 0.535605 0.535605 0.531984 0.531984 0.528005 0.528005 0.523667 0.523667 0.518968 0.518968 0.513905 0.513905 0.508479 0.508479 0.502689 0.502689 0.496534 0.496534 0.490013 0.490013 0.483129 0.483129 0.47588 0.47588 0.468269 0.468269 0.460297 0.460297 0.451965 0.451965 0.443276 0.443276 0.434232 0.434232 0.424836 0.424836 0.415092 0.415092 0.405003 0.405003 0.394573 0.394573 0.383806 0.383806 0.372708 0.372708 0.361284 0.361284 0.349538 0.349538 0.337477 0.337477 0.325108 0.325108 0.312435 0.312435 0.299468 0.299468 0.286212 0.286212 0.272675 0.272675 0.258865 0.258865 0.244791 0.244791 0.23046 0.23046 0.215882 0.215882 0.201066 0.201066 0.186021 0.186021 0.170757 0.170757 0.155284 0.155284 0.139611 0.139611 0.12375 0.12375 0.10771 0.10771 0.091504 0.091504 0.0751414 0.0751414 0.058634 0.058634 0.0419931 0.0419931 0.0252305 0.0252305 0.00835787 0.00835787 -0.00861287 -0.00861287 -0.0256697 -0.0256697 -0.0428004 -0.0428004 -0.0599927 -0.0599927 -0.0772344 -0.0772344 -0.0945129 -0.0945129 -0.111816 -0.111816 -0.129131 -0.129131 -0.146445 -0.146445 -0.163746 -0.163746 -0.181021 -0.181021 -0.198258 -0.198258 -0.215444 -0.215444 -0.232567 -0.232567 -0.249614 -0.249614 -0.266573 -0.266573 -0.283432 -0.283432 -0.300178 -0.300178 -0.3168 -0.3168 -0.333285 -0.333285 -0.349622 -0.349622 -0.3658 -0.3658 -0.381806 -0.381806 -0.39763 -0.39763 -0.413261 -0.413261 -0.428687 -0.428687 -0.443899 -0.443899 -0.458885 -0.458885 -0.473636 -0.473636 -0.488141 -0.488141 -0.502391 -0.502391 -0.516378 -0.516378 -0.53009 -0.53009 -0.543521 -0.543521 -0.556661 -0.556661 -0.569502 -0.569502 -0.582036 -0.582036 -0.594257 -0.594257 -0.606156 -0.606156 -0.617727 -0.617727 -0.628963 -0.628963 -0.639858 -0.639858 -0.650407 -0.650407 -0.660604 -0.660604 -0.670443 -0.670443 -0.679921 -0.679921 -0.689032 -0.689032 -0.697773 -0.697773 -0.706141 -0.706141 -0.714132 -0.714132 -0.721742 -0.721742 -0.728971 -0.728971 -0.735815 -0.735815 -0.742273 -0.742273 -0.748344 -0.748344 -0.754026 -0.754026 -0.759319 -0.759319 -0.764223 -0.764223 -0.768738 -0.768738 -0.772864 -0.772864 -0.776603 -0.776603 -0.779954 -0.779954 -0.782921 -0.782921 -0.785504 -0.785504 -0.787707 -0.787707 -0.789531 -0.789531 -0.790979 -0.790979 -0.792055 -0.792055 -0.792761 -0.792761 -0.793103 -0.793103 -0.793083 -0.793083 -0.792706 -0.792706 -0.791977 -0.791977 -0.790901 -0.790901 -0.789483 -0.789483 -0.787727 -0.787727 -0.785641 -0.785641 -0.783229 -0.783229 -0.780498 -0.780498 -0.777453 -0.777453 -0.774102 -0.774102 -0.770452 -0.770452 -0.766508 -0.766508 -0.762278 -0.762278 -0.757769 -0.757769 -0.752988 -0.752988 -0.747943 -0.747943 -0.742642 -0.742642 -0.737092 -0.737092 -0.7313 -0.7313 -0.725275 -0.725275 -0.719025 -0.719025 -0.712557 -0.712557 -0.705881 -0.705881 -0.699003 -0.699003 -0.691932 -0.691932 -0.684676 -0.684676 -0.677244 -0.677244 -0.669644 -0.669644 -0.661884 -0.661884 -0.653972 -0.653972 -0.645917 -0.645917 -0.637726 -0.637726 -0.629408 -0.629408 -0.620971 -0.620971 -0.612423 -0.612423 -0.603773 -0.603773 -0.595027 -0.595027 -0.586194 -0.586194 -0.577282 -0.577282 -0.568298 -0.568298 -0.559251 -0.559251 -0.550147 -0.550147 -0.540993 -0.540993 -0.531799 -0.531799 -0.522569 -0.522569 -0.513312 -0.513312 -0.504034 -0.504034 -0.494742 -0.494742 -0.485444 -0.485444 -0.476144 -0.476144 -0.46685 -0.46685 -0.457568 -0.457568 -0.448303 -0.448303 -0.439062 -0.439062 -0.429851 -0.429851 -0.420675 -0.420675 -0.411539 -0.411539 -0.402449 -0.402449 -0.393409 -0.393409 -0.384425 -0.384425 -0.375501 -0.375501 -0.366642 -0.366642 -0.357852 -0.357852 -0.349135 -0.349135 -0.340495 -0.340495 -0.331937 -0.331937 -0.323464 -0.323464 -0.315079 -0.315079 -0.306786 -0.306786 -0.298587 -0.298587 -0.290486 -0.290486 -0.282486 -0.282486 -0.274589 -0.274589 -0.266798 -0.266798 -0.259115 -0.259115 -0.251542 -0.251542 -0.244081 -0.244081 -0.236734 -0.236734 -0.229503 -0.229503 -0.222389 -0.222389 -0.215393 -0.215393 -0.208517 -0.208517 -0.201762 -0.201762 -0.195129 -0.195129 -0.188618 -0.188618 -0.182231 -0.182231 -0.175967 -0.175967 -0.169828 -0.169828 -0.163813 -0.163813 -0.157923 -0.157923 -0.152157 -0.152157 -0.146516 -0.146516 -0.141 -0.141 -0.135607 -0.135607 -0.130339 -0.130339 -0.125193 -0.125193 -0.12017 -0.12017 -0.11527 -0.11527 -0.11049 -0.11049 -0.105831 -0.105831 -0.101292 -0.101292 -0.0968708 -0.0968708 -0.0925672 -0.0925672 -0.0883798 -0.0883798 -0.0843075 -0.0843075 -0.0803491 -0.0803491 -0.076503 -0.076503 -0.0727681 -0.0727681 -0.0691428 -0.0691428 -0.0656257 -0.0656257 -0.0622152 -0.0622152 -0.0589098 -0.0589098 -0.0557079 -0.0557079 -0.0526077 -0.0526077 -0.0496078 -0.0496078 -0.0467062 -0.0467062 -0.0439014 -0.0439014 -0.0411916 -0.0411916 -0.0385749 -0.0385749 -0.0360496 -0.0360496 -0.033614 -0.033614 -0.0312661 -0.0312661 -0.0290042 -0.0290042 -0.0268264 -0.0268264 -0.0247309 -0.0247309 -0.0227158 -0.0227158 -0.0207794 -0.0207794 -0.0189196 -0.0189196 -0.0171348 -0.0171348 -0.0154231 -0.0154231 -0.0137827 -0.0137827 -0.0122117 -0.0122117 -0.0107083 -0.0107083 -0.00927083 -0.00927083 -0.00789739 -0.00789739 -0.00658624 -0.00658624 -0.00533565 -0.00533565 -0.00414388 -0.00414388 -0.00300921 -0.00300921 -0.00192997 -0.00192997 -0.000904468 -0.000904468 6.8933e-05 6.8933e-05 0.000991862 0.000991862 0.00186592 0.00186592 0.00269269 0.00269269 0.00347371 0.00347371 0.00421052 0.00421052 0.00490461 0.00490461 0.00555746 0.00555746 0.00617051 0.00617051 0.00674517 0.00674517 0.00728284 0.00728284 0.00778488 0.00778488 0.00825261 0.00825261 0.00868734 0.00868734 0.00909033 0.00909033 0.00946284 0.00946284 0.00980607 0.00980607 0.0101212 0.0101212 0.0104094 0.0104094 0.0106718 0.0106718 0.0109095 0.0109095 0.0111235 0.0111235 0.0113149 0.0113149 0.0114847 0.0114847 0.0116339 0.0116339 0.0117634 0.0117634 0.0118742 0.0118742 0.0119671 0.0119671 0.012043 0.012043 0.0121028 0.0121028 0.0121472 0.0121472 0.0121771 0.0121771 0.0121932 0.0121932 0.0121963 0.0121963 0.012187 0.012187 0.0121661 0.0121661 0.0121342 0.0121342 0.012092 0.012092 0.01204 0.01204 0.0119788 0.0119788 0.0119091 0.0119091 0.0118314 0.0118314 0.0117461 0.0117461 0.0116539 0.0116539 0.0115551 0.0115551 0.0114503 0.0114503 0.0113399 0.0113399 0.0112243 0.0112243 0.011104 0.011104 0.0109792 0.0109792 0.0108505 0.0108505 0.0107181 0.0107181 0.0105824 0.0105824 0.0104437 0.0104437 0.0103023 0.0103023 0.0101586 0.0101586 0.0100127 0.0100127 0.00986495 0.00986495 0.00971562 0.00971562 0.00956494 0.00956494 0.00941313 0.00941313 0.00926039 0.00926039 0.00910693 0.00910693 0.00895295 0.00895295 0.00879861 0.00879861 0.00864409 0.00864409 0.00848955 0.00848955 0.00833513 0.00833513 0.00818097 0.00818097 0.00802721 0.00802721 0.00787396 0.00787396 0.00772134 0.00772134 0.00756946 0.00756946 0.0074184 0.0074184 0.00726827 0.00726827 0.00711915 0.00711915 0.00697111 0.00697111 0.00682423 0.00682423 0.00667857 0.00667857 0.00653419 0.00653419 0.00639115 0.00639115 0.00624949 0.00624949 0.00610925 0.00610925 0.00597049 0.00597049 0.00583323 0.00583323 0.0056975 0.0056975 0.00556333 0.00556333 0.00543074 0.00543074 0.00529976 0.00529976 0.0051704 0.0051704 0.00504268 0.00504268 0.00491659 0.00491659 0.00479217 0.00479217 0.00466939 0.00466939 0.00454828 0.00454828 0.00442883 0.00442883 0.00431104 0.00431104 0.0041949 0.0041949 0.00408042 0.00408042 0.00396758 0.00396758 0.00385637 0.00385637 0.00374679 0.00374679 0.00363883 0.00363883 0.00353246 0.00353246 0.00342768 0.00342768 0.00332448 0.00332448 0.00322283 0.00322283 0.00312273 0.00312273 0.00302415 0.00302415 0.00292708 0.00292708 0.00283149 0.00283149 0.00273737 0.00273737 0.00264471 0.00264471 0.00255347 0.00255347 0.00246364 0.00246364 0.00237521 0.00237521 0.00228814 0.00228814 0.00220242 0.00220242 0.00211803 0.00211803 0.00203494 0.00203494 0.00195314 0.00195314 0.0018726 0.0018726 0.0017933 0.0017933 0.00171523 0.00171523 0.00163836 0.00163836 0.00156267 0.00156267 0.00148813 0.00148813 0.00141474 0.00141474 0.00134246 0.00134246 0.00127128 0.00127128 0.00120118 0.00120118 0.00113213 0.00113213 0.00106413 0.00106413 0.00099714 0.00099714 0.000931153 0.000931153 0.000866147 0.000866147 0.000802103 0.000802103 0.000739003 0.000739003 0.000676829 0.000676829 0.000615564 0.000615564 0.000555189 0.000555189 0.000495689 0.000495689 0.000437045 0.000437045 0.000379242 0.000379242 0.000322263 0.000322263 0.000266093 0.000266093 0.000210715 0.000210715 0.000156115 0.000156115 0.000102277 0.000102277 4.91875e-05 4.91875e-05 -3.16895e-06 -3.16895e-06 -5.4806e-05 -5.4806e-05 -0.000105738 -0.000105738 -0.000155977 -0.000155977 -0.000205538 -0.000205538 -0.000254433 -0.000254433 -0.000302676 -0.000302676 -0.000350277 -0.000350277 -0.00039725 -0.00039725 -0.000443606 -0.000443606 -0.000489358 -0.000489358 -0.000534515 -0.000534515 -0.000579091 -0.000579091 -0.000623095 -0.000623095 -0.000666537 -0.000666537 -0.00070943 -0.00070943 -0.000751782 -0.000751782 -0.000793603 -0.000793603 -0.000834904 -0.000834904 -0.000875694 -0.000875694 -0.000915982 -0.000915982 -0.000955777 -0.000955777 -0.000995089 -0.000995089 -0.00103393 -0.00103393 -0.0010723 -0.0010723 -0.00111021 -0.00111021 -0.00114767 -0.00114767 -0.00118469 -0.00118469 -0.0012