# vtk DataFile Version 3.0
#This file was generated by the deal.II library on 2020/9/1 at 14:40:08
ASCII
DATASET UNSTRUCTURED_GRID

POINTS 2048 double
1.5 0 0
1.59619 0 0
1.59619 0 0
1.69238 0 0
1.69238 0 0
1.78857 0 0
1.78857 0 0
1.88477 0 0
1.88477 0 0
1.98096 0 0
1.98096 0 0
2.07715 0 0
2.07715 0 0
2.17334 0 0
2.17334 0 0
2.26953 0 0
2.26953 0 0
2.36572 0 0
2.36572 0 0
2.46191 0 0
2.46191 0 0
2.55811 0 0
2.55811 0 0
2.6543 0 0
2.6543 0 0
2.75049 0 0
2.75049 0 0
2.84668 0 0
2.84668 0 0
2.94287 0 0
2.94287 0 0
3.03906 0 0
3.03906 0 0
3.13525 0 0
3.13525 0 0
3.23145 0 0
3.23145 0 0
3.32764 0 0
3.32764 0 0
3.42383 0 0
3.42383 0 0
3.52002 0 0
3.52002 0 0
3.61621 0 0
3.61621 0 0
3.7124 0 0
3.7124 0 0
3.80859 0 0
3.80859 0 0
3.90479 0 0
3.90479 0 0
4.00098 0 0
4.00098 0 0
4.09717 0 0
4.09717 0 0
4.19336 0 0
4.19336 0 0
4.28955 0 0
4.28955 0 0
4.38574 0 0
4.38574 0 0
4.48193 0 0
4.48193 0 0
4.57812 0 0
4.57812 0 0
4.67432 0 0
4.67432 0 0
4.77051 0 0
4.77051 0 0
4.8667 0 0
4.8667 0 0
4.96289 0 0
4.96289 0 0
5.05908 0 0
5.05908 0 0
5.15527 0 0
5.15527 0 0
5.25146 0 0
5.25146 0 0
5.34766 0 0
5.34766 0 0
5.44385 0 0
5.44385 0 0
5.54004 0 0
5.54004 0 0
5.63623 0 0
5.63623 0 0
5.73242 0 0
5.73242 0 0
5.82861 0 0
5.82861 0 0
5.9248 0 0
5.9248 0 0
6.021 0 0
6.021 0 0
6.11719 0 0
6.11719 0 0
6.21338 0 0
6.21338 0 0
6.30957 0 0
6.30957 0 0
6.40576 0 0
6.40576 0 0
6.50195 0 0
6.50195 0 0
6.59814 0 0
6.59814 0 0
6.69434 0 0
6.69434 0 0
6.79053 0 0
6.79053 0 0
6.88672 0 0
6.88672 0 0
6.98291 0 0
6.98291 0 0
7.0791 0 0
7.0791 0 0
7.17529 0 0
7.17529 0 0
7.27148 0 0
7.27148 0 0
7.36768 0 0
7.36768 0 0
7.46387 0 0
7.46387 0 0
7.56006 0 0
7.56006 0 0
7.65625 0 0
7.65625 0 0
7.75244 0 0
7.75244 0 0
7.84863 0 0
7.84863 0 0
7.94482 0 0
7.94482 0 0
8.04102 0 0
8.04102 0 0
8.13721 0 0
8.13721 0 0
8.2334 0 0
8.2334 0 0
8.32959 0 0
8.32959 0 0
8.42578 0 0
8.42578 0 0
8.52197 0 0
8.52197 0 0
8.61816 0 0
8.61816 0 0
8.71436 0 0
8.71436 0 0
8.81055 0 0
8.81055 0 0
8.90674 0 0
8.90674 0 0
9.00293 0 0
9.00293 0 0
9.09912 0 0
9.09912 0 0
9.19531 0 0
9.19531 0 0
9.2915 0 0
9.2915 0 0
9.3877 0 0
9.3877 0 0
9.48389 0 0
9.48389 0 0
9.58008 0 0
9.58008 0 0
9.67627 0 0
9.67627 0 0
9.77246 0 0
9.77246 0 0
9.86865 0 0
9.86865 0 0
9.96484 0 0
9.96484 0 0
10.061 0 0
10.061 0 0
10.1572 0 0
10.1572 0 0
10.2534 0 0
10.2534 0 0
10.3496 0 0
10.3496 0 0
10.4458 0 0
10.4458 0 0
10.542 0 0
10.542 0 0
10.6382 0 0
10.6382 0 0
10.7344 0 0
10.7344 0 0
10.8306 0 0
10.8306 0 0
10.9268 0 0
10.9268 0 0
11.0229 0 0
11.0229 0 0
11.1191 0 0
11.1191 0 0
11.2153 0 0
11.2153 0 0
11.3115 0 0
11.3115 0 0
11.4077 0 0
11.4077 0 0
11.5039 0 0
11.5039 0 0
11.6001 0 0
11.6001 0 0
11.6963 0 0
11.6963 0 0
11.7925 0 0
11.7925 0 0
11.8887 0 0
11.8887 0 0
11.9849 0 0
11.9849 0 0
12.0811 0 0
12.0811 0 0
12.1772 0 0
12.1772 0 0
12.2734 0 0
12.2734 0 0
12.3696 0 0
12.3696 0 0
12.4658 0 0
12.4658 0 0
12.562 0 0
12.562 0 0
12.6582 0 0
12.6582 0 0
12.7544 0 0
12.7544 0 0
12.8506 0 0
12.8506 0 0
12.9468 0 0
12.9468 0 0
13.043 0 0
13.043 0 0
13.1392 0 0
13.1392 0 0
13.2354 0 0
13.2354 0 0
13.3315 0 0
13.3315 0 0
13.4277 0 0
13.4277 0 0
13.5239 0 0
13.5239 0 0
13.6201 0 0
13.6201 0 0
13.7163 0 0
13.7163 0 0
13.8125 0 0
13.8125 0 0
13.9087 0 0
13.9087 0 0
14.0049 0 0
14.0049 0 0
14.1011 0 0
14.1011 0 0
14.1973 0 0
14.1973 0 0
14.2935 0 0
14.2935 0 0
14.3896 0 0
14.3896 0 0
14.4858 0 0
14.4858 0 0
14.582 0 0
14.582 0 0
14.6782 0 0
14.6782 0 0
14.7744 0 0
14.7744 0 0
14.8706 0 0
14.8706 0 0
14.9668 0 0
14.9668 0 0
15.063 0 0
15.063 0 0
15.1592 0 0
15.1592 0 0
15.2554 0 0
15.2554 0 0
15.3516 0 0
15.3516 0 0
15.4478 0 0
15.4478 0 0
15.5439 0 0
15.5439 0 0
15.6401 0 0
15.6401 0 0
15.7363 0 0
15.7363 0 0
15.8325 0 0
15.8325 0 0
15.9287 0 0
15.9287 0 0
16.0249 0 0
16.0249 0 0
16.1211 0 0
16.1211 0 0
16.2173 0 0
16.2173 0 0
16.3135 0 0
16.3135 0 0
16.4097 0 0
16.4097 0 0
16.5059 0 0
16.5059 0 0
16.6021 0 0
16.6021 0 0
16.6982 0 0
16.6982 0 0
16.7944 0 0
16.7944 0 0
16.8906 0 0
16.8906 0 0
16.9868 0 0
16.9868 0 0
17.083 0 0
17.083 0 0
17.1792 0 0
17.1792 0 0
17.2754 0 0
17.2754 0 0
17.3716 0 0
17.3716 0 0
17.4678 0 0
17.4678 0 0
17.564 0 0
17.564 0 0
17.6602 0 0
17.6602 0 0
17.7563 0 0
17.7563 0 0
17.8525 0 0
17.8525 0 0
17.9487 0 0
17.9487 0 0
18.0449 0 0
18.0449 0 0
18.1411 0 0
18.1411 0 0
18.2373 0 0
18.2373 0 0
18.3335 0 0
18.3335 0 0
18.4297 0 0
18.4297 0 0
18.5259 0 0
18.5259 0 0
18.6221 0 0
18.6221 0 0
18.7183 0 0
18.7183 0 0
18.8145 0 0
18.8145 0 0
18.9106 0 0
18.9106 0 0
19.0068 0 0
19.0068 0 0
19.103 0 0
19.103 0 0
19.1992 0 0
19.1992 0 0
19.2954 0 0
19.2954 0 0
19.3916 0 0
19.3916 0 0
19.4878 0 0
19.4878 0 0
19.584 0 0
19.584 0 0
19.6802 0 0
19.6802 0 0
19.7764 0 0
19.7764 0 0
19.8726 0 0
19.8726 0 0
19.9688 0 0
19.9688 0 0
20.0649 0 0
20.0649 0 0
20.1611 0 0
20.1611 0 0
20.2573 0 0
20.2573 0 0
20.3535 0 0
20.3535 0 0
20.4497 0 0
20.4497 0 0
20.5459 0 0
20.5459 0 0
20.6421 0 0
20.6421 0 0
20.7383 0 0
20.7383 0 0
20.8345 0 0
20.8345 0 0
20.9307 0 0
20.9307 0 0
21.0269 0 0
21.0269 0 0
21.123 0 0
21.123 0 0
21.2192 0 0
21.2192 0 0
21.3154 0 0
21.3154 0 0
21.4116 0 0
21.4116 0 0
21.5078 0 0
21.5078 0 0
21.604 0 0
21.604 0 0
21.7002 0 0
21.7002 0 0
21.7964 0 0
21.7964 0 0
21.8926 0 0
21.8926 0 0
21.9888 0 0
21.9888 0 0
22.085 0 0
22.085 0 0
22.1812 0 0
22.1812 0 0
22.2773 0 0
22.2773 0 0
22.3735 0 0
22.3735 0 0
22.4697 0 0
22.4697 0 0
22.5659 0 0
22.5659 0 0
22.6621 0 0
22.6621 0 0
22.7583 0 0
22.7583 0 0
22.8545 0 0
22.8545 0 0
22.9507 0 0
22.9507 0 0
23.0469 0 0
23.0469 0 0
23.1431 0 0
23.1431 0 0
23.2393 0 0
23.2393 0 0
23.3354 0 0
23.3354 0 0
23.4316 0 0
23.4316 0 0
23.5278 0 0
23.5278 0 0
23.624 0 0
23.624 0 0
23.7202 0 0
23.7202 0 0
23.8164 0 0
23.8164 0 0
23.9126 0 0
23.9126 0 0
24.0088 0 0
24.0088 0 0
24.105 0 0
24.105 0 0
24.2012 0 0
24.2012 0 0
24.2974 0 0
24.2974 0 0
24.3936 0 0
24.3936 0 0
24.4897 0 0
24.4897 0 0
24.5859 0 0
24.5859 0 0
24.6821 0 0
24.6821 0 0
24.7783 0 0
24.7783 0 0
24.8745 0 0
24.8745 0 0
24.9707 0 0
24.9707 0 0
25.0669 0 0
25.0669 0 0
25.1631 0 0
25.1631 0 0
25.2593 0 0
25.2593 0 0
25.3555 0 0
25.3555 0 0
25.4517 0 0
25.4517 0 0
25.5479 0 0
25.5479 0 0
25.644 0 0
25.644 0 0
25.7402 0 0
25.7402 0 0
25.8364 0 0
25.8364 0 0
25.9326 0 0
25.9326 0 0
26.0288 0 0
26.0288 0 0
26.125 0 0
26.125 0 0
26.2212 0 0
26.2212 0 0
26.3174 0 0
26.3174 0 0
26.4136 0 0
26.4136 0 0
26.5098 0 0
26.5098 0 0
26.606 0 0
26.606 0 0
26.7021 0 0
26.7021 0 0
26.7983 0 0
26.7983 0 0
26.8945 0 0
26.8945 0 0
26.9907 0 0
26.9907 0 0
27.0869 0 0
27.0869 0 0
27.1831 0 0
27.1831 0 0
27.2793 0 0
27.2793 0 0
27.3755 0 0
27.3755 0 0
27.4717 0 0
27.4717 0 0
27.5679 0 0
27.5679 0 0
27.6641 0 0
27.6641 0 0
27.7603 0 0
27.7603 0 0
27.8564 0 0
27.8564 0 0
27.9526 0 0
27.9526 0 0
28.0488 0 0
28.0488 0 0
28.145 0 0
28.145 0 0
28.2412 0 0
28.2412 0 0
28.3374 0 0
28.3374 0 0
28.4336 0 0
28.4336 0 0
28.5298 0 0
28.5298 0 0
28.626 0 0
28.626 0 0
28.7222 0 0
28.7222 0 0
28.8184 0 0
28.8184 0 0
28.9146 0 0
28.9146 0 0
29.0107 0 0
29.0107 0 0
29.1069 0 0
29.1069 0 0
29.2031 0 0
29.2031 0 0
29.2993 0 0
29.2993 0 0
29.3955 0 0
29.3955 0 0
29.4917 0 0
29.4917 0 0
29.5879 0 0
29.5879 0 0
29.6841 0 0
29.6841 0 0
29.7803 0 0
29.7803 0 0
29.8765 0 0
29.8765 0 0
29.9727 0 0
29.9727 0 0
30.0688 0 0
30.0688 0 0
30.165 0 0
30.165 0 0
30.2612 0 0
30.2612 0 0
30.3574 0 0
30.3574 0 0
30.4536 0 0
30.4536 0 0
30.5498 0 0
30.5498 0 0
30.646 0 0
30.646 0 0
30.7422 0 0
30.7422 0 0
30.8384 0 0
30.8384 0 0
30.9346 0 0
30.9346 0 0
31.0308 0 0
31.0308 0 0
31.127 0 0
31.127 0 0
31.2231 0 0
31.2231 0 0
31.3193 0 0
31.3193 0 0
31.4155 0 0
31.4155 0 0
31.5117 0 0
31.5117 0 0
31.6079 0 0
31.6079 0 0
31.7041 0 0
31.7041 0 0
31.8003 0 0
31.8003 0 0
31.8965 0 0
31.8965 0 0
31.9927 0 0
31.9927 0 0
32.0889 0 0
32.0889 0 0
32.1851 0 0
32.1851 0 0
32.2812 0 0
32.2812 0 0
32.3774 0 0
32.3774 0 0
32.4736 0 0
32.4736 0 0
32.5698 0 0
32.5698 0 0
32.666 0 0
32.666 0 0
32.7622 0 0
32.7622 0 0
32.8584 0 0
32.8584 0 0
32.9546 0 0
32.9546 0 0
33.0508 0 0
33.0508 0 0
33.147 0 0
33.147 0 0
33.2432 0 0
33.2432 0 0
33.3394 0 0
33.3394 0 0
33.4355 0 0
33.4355 0 0
33.5317 0 0
33.5317 0 0
33.6279 0 0
33.6279 0 0
33.7241 0 0
33.7241 0 0
33.8203 0 0
33.8203 0 0
33.9165 0 0
33.9165 0 0
34.0127 0 0
34.0127 0 0
34.1089 0 0
34.1089 0 0
34.2051 0 0
34.2051 0 0
34.3013 0 0
34.3013 0 0
34.3975 0 0
34.3975 0 0
34.4937 0 0
34.4937 0 0
34.5898 0 0
34.5898 0 0
34.686 0 0
34.686 0 0
34.7822 0 0
34.7822 0 0
34.8784 0 0
34.8784 0 0
34.9746 0 0
34.9746 0 0
35.0708 0 0
35.0708 0 0
35.167 0 0
35.167 0 0
35.2632 0 0
35.2632 0 0
35.3594 0 0
35.3594 0 0
35.4556 0 0
35.4556 0 0
35.5518 0 0
35.5518 0 0
35.6479 0 0
35.6479 0 0
35.7441 0 0
35.7441 0 0
35.8403 0 0
35.8403 0 0
35.9365 0 0
35.9365 0 0
36.0327 0 0
36.0327 0 0
36.1289 0 0
36.1289 0 0
36.2251 0 0
36.2251 0 0
36.3213 0 0
36.3213 0 0
36.4175 0 0
36.4175 0 0
36.5137 0 0
36.5137 0 0
36.6099 0 0
36.6099 0 0
36.7061 0 0
36.7061 0 0
36.8022 0 0
36.8022 0 0
36.8984 0 0
36.8984 0 0
36.9946 0 0
36.9946 0 0
37.0908 0 0
37.0908 0 0
37.187 0 0
37.187 0 0
37.2832 0 0
37.2832 0 0
37.3794 0 0
37.3794 0 0
37.4756 0 0
37.4756 0 0
37.5718 0 0
37.5718 0 0
37.668 0 0
37.668 0 0
37.7642 0 0
37.7642 0 0
37.8604 0 0
37.8604 0 0
37.9565 0 0
37.9565 0 0
38.0527 0 0
38.0527 0 0
38.1489 0 0
38.1489 0 0
38.2451 0 0
38.2451 0 0
38.3413 0 0
38.3413 0 0
38.4375 0 0
38.4375 0 0
38.5337 0 0
38.5337 0 0
38.6299 0 0
38.6299 0 0
38.7261 0 0
38.7261 0 0
38.8223 0 0
38.8223 0 0
38.9185 0 0
38.9185 0 0
39.0146 0 0
39.0146 0 0
39.1108 0 0
39.1108 0 0
39.207 0 0
39.207 0 0
39.3032 0 0
39.3032 0 0
39.3994 0 0
39.3994 0 0
39.4956 0 0
39.4956 0 0
39.5918 0 0
39.5918 0 0
39.688 0 0
39.688 0 0
39.7842 0 0
39.7842 0 0
39.8804 0 0
39.8804 0 0
39.9766 0 0
39.9766 0 0
40.0728 0 0
40.0728 0 0
40.1689 0 0
40.1689 0 0
40.2651 0 0
40.2651 0 0
40.3613 0 0
40.3613 0 0
40.4575 0 0
40.4575 0 0
40.5537 0 0
40.5537 0 0
40.6499 0 0
40.6499 0 0
40.7461 0 0
40.7461 0 0
40.8423 0 0
40.8423 0 0
40.9385 0 0
40.9385 0 0
41.0347 0 0
41.0347 0 0
41.1309 0 0
41.1309 0 0
41.2271 0 0
41.2271 0 0
[...]
POINT_DATA 2048
SCALARS solution_0 double 1
LOOKUP_TABLE default
-1.55982 -1.71983 -1.71983 -1.88477 -1.88477 -2.05491 -2.05491 -2.22844 -2.22844 -2.39952 -2.39952 -2.55643 -2.55643 -2.68185 -2.68185 -2.75622 -2.75622 -2.76349 -2.76349 -2.69655 -2.69655 -2.55961 -2.55961 -2.3668 -2.3668 -2.13802 -2.13802 -1.89413 -1.89413 -1.65303 -1.65303 -1.42753 -1.42753 -1.22489 -1.22489 -1.04743 -1.04743 -0.893866 -0.893866 -0.760522 -0.760522 -0.642522 -0.642522 -0.534573 -0.534573 -0.431485 -0.431485 -0.328441 -0.328441 -0.2211 -0.2211 -0.105601 -0.105601 0.0214751 0.0214751 0.163161 0.163161 0.32214 0.32214 0.500765 0.500765 0.701052 0.701052 0.924652 0.924652 1.1728 1.1728 1.44626 1.44626 1.74525 1.74525 2.06935 2.06935 2.41749 2.41749 2.78783 2.78783 3.17779 3.17779 3.58397 3.58397 4.00222 4.00222 4.42766 4.42766 4.85475 4.85475 5.27741 5.27741 5.68915 5.68915 6.08325 6.08325 6.45293 6.45293 6.79154 6.79154 7.0928 7.0928 7.35095 7.35095 7.56099 7.56099 7.71883 7.71883 7.82141 7.82141 7.86683 7.86683 7.85442 7.85442 7.78472 7.78472 7.65949 7.65949 7.48164 7.48164 7.25512 7.25512 6.98477 6.98477 6.67615 6.67615 6.33538 6.33538 5.96891 5.96891 5.58337 5.58337 5.18532 5.18532 4.78111 4.78111 4.37673 4.37673 3.97765 3.97765 3.58874 3.58874 3.21419 3.21419 2.85749 2.85749 2.52137 2.52137 2.20785 2.20785 1.91825 1.91825 1.65327 1.65327 1.41303 1.41303 1.19716 1.19716 1.00487 1.00487 0.83504 0.83504 0.686311 0.686311 0.557133 0.557133 0.44585 0.44585 0.350759 0.350759 0.270159 0.270159 0.202392 0.202392 0.145878 0.145878 0.0991336 0.0991336 0.0607953 0.0607953 0.0296234 0.0296234 0.00450767 0.00450767 -0.0155339 -0.0155339 -0.0313597 -0.0313597 -0.0437118 -0.0437118 -0.0532249 -0.0532249 -0.0604364 -0.0604364 -0.065797 -0.065797 -0.069681 -0.069681 -0.0723967 -0.0723967 -0.0741956 -0.0741956 -0.0752813 -0.0752813 -0.0758173 -0.0758173 -0.0759335 -0.0759335 -0.0757326 -0.0757326 -0.0752951 -0.0752951 -0.0746836 -0.0746836 -0.0739463 -0.0739463 -0.0731202 -0.0731202 -0.0722333 -0.0722333 -0.0713066 -0.0713066 -0.070356 -0.070356 -0.0693932 -0.0693932 -0.0684266 -0.0684266 -0.0674625 -0.0674625 -0.0665052 -0.0665052 -0.0655578 -0.0655578 -0.0646225 -0.0646225 -0.0637007 -0.0637007 -0.0627933 -0.0627933 -0.0619007 -0.0619007 -0.0610232 -0.0610232 -0.0601609 -0.0601609 -0.0593138 -0.0593138 -0.0584816 -0.0584816 -0.0576641 -0.0576641 -0.0568611 -0.0568611 -0.0560724 -0.0560724 -0.0552975 -0.0552975 -0.0545363 -0.0545363 -0.0537884 -0.0537884 -0.0530534 -0.0530534 -0.0523312 -0.0523312 -0.0516214 -0.0516214 -0.0509238 -0.0509238 -0.050238 -0.050238 -0.0495638 -0.0495638 -0.0489009 -0.0489009 -0.048249 -0.048249 -0.047608 -0.047608 -0.0469776 -0.0469776 -0.0463575 -0.0463575 -0.0457475 -0.0457475 -0.0451474 -0.0451474 -0.044557 -0.044557 -0.0439761 -0.0439761 -0.0434044 -0.0434044 -0.0428417 -0.0428417 -0.0422879 -0.0422879 -0.0417428 -0.0417428 -0.0412062 -0.0412062 -0.040678 -0.040678 -0.0401578 -0.0401578 -0.0396456 -0.0396456 -0.0391413 -0.0391413 -0.0386446 -0.0386446 -0.0381554 -0.0381554 -0.0376735 -0.0376735 -0.0371988 -0.0371988 -0.0367312 -0.0367312 -0.0362705 -0.0362705 -0.0358165 -0.0358165 -0.0353692 -0.0353692 -0.0349284 -0.0349284 -0.034494 -0.034494 -0.0340658 -0.0340658 -0.0336438 -0.0336438 -0.0332278 -0.0332278 -0.0328177 -0.0328177 -0.0324134 -0.0324134 -0.0320147 -0.0320147 -0.0316217 -0.0316217 -0.0312341 -0.0312341 -0.0308519 -0.0308519 -0.030475 -0.030475 -0.0301032 -0.0301032 -0.0297365 -0.0297365 -0.0293748 -0.0293748 -0.029018 -0.029018 -0.028666 -0.028666 -0.0283188 -0.0283188 -0.0279761 -0.0279761 -0.027638 -0.027638 -0.0273044 -0.0273044 -0.0269752 -0.0269752 -0.0266503 -0.0266503 -0.0263297 -0.0263297 -0.0260132 -0.0260132 -0.0257008 -0.0257008 -0.0253924 -0.0253924 -0.025088 -0.025088 -0.0247875 -0.0247875 -0.0244909 -0.0244909 -0.0241979 -0.0241979 -0.0239087 -0.0239087 -0.0236231 -0.0236231 -0.0233411 -0.0233411 -0.0230626 -0.0230626 -0.0227875 -0.0227875 -0.0225159 -0.0225159 -0.0222476 -0.0222476 -0.0219826 -0.0219826 -0.0217208 -0.0217208 -0.0214622 -0.0214622 -0.0212067 -0.0212067 -0.0209544 -0.0209544 -0.020705 -0.020705 -0.0204587 -0.0204587 -0.0202153 -0.0202153 -0.0199747 -0.0199747 -0.0197371 -0.0197371 -0.0195022 -0.0195022 -0.0192701 -0.0192701 -0.0190407 -0.0190407 -0.018814 -0.018814 -0.0185899 -0.0185899 -0.0183684 -0.0183684 -0.0181495 -0.0181495 -0.017933 -0.017933 -0.0177191 -0.0177191 -0.0175076 -0.0175076 -0.0172985 -0.0172985 -0.0170918 -0.0170918 -0.0168874 -0.0168874 -0.0166853 -0.0166853 -0.0164854 -0.0164854 -0.0162878 -0.0162878 -0.0160924 -0.0160924 -0.0158992 -0.0158992 -0.0157081 -0.0157081 -0.0155191 -0.0155191 -0.0153321 -0.0153321 -0.0151473 -0.0151473 -0.0149644 -0.0149644 -0.0147835 -0.0147835 -0.0146046 -0.0146046 -0.0144276 -0.0144276 -0.0142525 -0.0142525 -0.0140793 -0.0140793 -0.0139079 -0.0139079 -0.0137384 -0.0137384 -0.0135707 -0.0135707 -0.0134047 -0.0134047 -0.0132405 -0.0132405 -0.013078 -0.013078 -0.0129172 -0.0129172 -0.0127581 -0.0127581 -0.0126007 -0.0126007 -0.0124449 -0.0124449 -0.0122907 -0.0122907 -0.0121381 -0.0121381 -0.011987 -0.011987 -0.0118375 -0.0118375 -0.0116896 -0.0116896 -0.0115431 -0.0115431 -0.0113982 -0.0113982 -0.0112547 -0.0112547 -0.0111126 -0.0111126 -0.010972 -0.010972 -0.0108328 -0.0108328 -0.010695 -0.010695 -0.0105585 -0.0105585 -0.0104234 -0.0104234 -0.0102897 -0.0102897 -0.0101573 -0.0101573 -0.0100262 -0.0100262 -0.00989635 -0.00989635 -0.0097678 -0.0097678 -0.0096405 -0.0096405 -0.00951445 -0.00951445 -0.00938963 -0.00938963 -0.00926601 -0.00926601 -0.00914359 -0.00914359 -0.00902235 -0.00902235 -0.00890228 -0.00890228 -0.00878335 -0.00878335 -0.00866557 -0.00866557 -0.0085489 -0.0085489 -0.00843335 -0.00843335 -0.00831889 -0.00831889 -0.00820552 -0.00820552 -0.00809322 -0.00809322 -0.00798197 -0.00798197 -0.00787176 -0.00787176 -0.00776259 -0.00776259 -0.00765444 -0.00765444 -0.00754729 -0.00754729 -0.00744114 -0.00744114 -0.00733597 -0.00733597 -0.00723178 -0.00723178 -0.00712854 -0.00712854 -0.00702625 -0.00702625 -0.0069249 -0.0069249 -0.00682448 -0.00682448 -0.00672498 -0.00672498 -0.00662637 -0.00662637 -0.00652867 -0.00652867 -0.00643185 -0.00643185 -0.0063359 -0.0063359 -0.00624082 -0.00624082 -0.00614659 -0.00614659 -0.0060532 -0.0060532 -0.00596066 -0.00596066 -0.00586893 -0.00586893 -0.00577803 -0.00577803 -0.00568793 -0.00568793 -0.00559863 -0.00559863 -0.00551011 -0.00551011 -0.00542238 -0.00542238 -0.00533542 -0.00533542 -0.00524922 -0.00524922 -0.00516378 -0.00516378 -0.00507909 -0.00507909 -0.00499513 -0.00499513 -0.0049119 -0.0049119 -0.00482939 -0.00482939 -0.0047476 -0.0047476 -0.00466651 -0.00466651 -0.00458613 -0.00458613 -0.00450643 -0.00450643 -0.00442742 -0.00442742 -0.00434908 -0.00434908 -0.00427141 -0.00427141 -0.00419441 -0.00419441 -0.00411806 -0.00411806 -0.00404235 -0.00404235 -0.00396729 -0.00396729 -0.00389286 -0.00389286 -0.00381906 -0.00381906 -0.00374588 -0.00374588 -0.00367331 -0.00367331 -0.00360135 -0.00360135 -0.00352999 -0.00352999 -0.00345923 -0.00345923 -0.00338905 -0.00338905 -0.00331946 -0.00331946 -0.00325045 -0.00325045 -0.003182 -0.003182 -0.00311412 -0.00311412 -0.0030468 -0.0030468 -0.00298003 -0.00298003 -0.00291381 -0.00291381 -0.00284814 -0.00284814 -0.00278299 -0.00278299 -0.00271838 -0.00271838 -0.0026543 -0.0026543 -0.00259073 -0.00259073 -0.00252769 -0.00252769 -0.00246515 -0.00246515 -0.00240311 -0.00240311 -0.00234158 -0.00234158 -0.00228054 -0.00228054 -0.00221999 -0.00221999 -0.00215992 -0.00215992 -0.00210034 -0.00210034 -0.00204123 -0.00204123 -0.00198259 -0.00198259 -0.00192442 -0.00192442 -0.00186671 -0.00186671 -0.00180945 -0.00180945 -0.00175265 -0.00175265 -0.0016963 -0.0016963 -0.00164039 -0.00164039 -0.00158492 -0.00158492 -0.00152988 -0.00152988 -0.00147528 -0.00147528 -0.0014211 -0.0014211 -0.00136735 -0.00136735 -0.00131401 -0.00131401 -0.00126109 -0.00126109 -0.00120858 -0.00120858 -0.00115648 -0.00115648 -0.00110478 -0.00110478 -0.00105348 -0.00105348 -0.00100257 -0.00100257 -0.000952061 -0.000952061 -0.000901935 -0.000901935 -0.000852194 -0.000852194 -0.000802834 -0.000802834 -0.00075385 -0.00075385 -0.000705241 -0.000705241 -0.000657001 -0.000657001 -0.000609129 -0.000609129 -0.000561619 -0.000561619 -0.00051447 -0.00051447 -0.000467677 -0.000467677 -0.000421238 -0.000421238 -0.000375149 -0.000375149 -0.000329407 -0.000329407 -0.000284009 -0.000284009 -0.000238951 -0.000238951 -0.000194231 -0.000194231 -0.000149845 -0.000149845 -0.000105791 -0.000105791 -6.2065e-05 -6.2065e-05 -1.86647e-05 -1.86647e-05 2.4413e-05 2.4413e-05 6.71711e-05 6.71711e-05 0.000109612 0.000109612 0.00015174 0.00015174 0.000193556 0.000193556 0.000235064 0.000235064 0.000276266 0.000276266 0.000317165 0.000317165 0.000357764 0.000357764 0.000398065 0.000398065 0.000438072 0.000438072 0.000477786 0.000477786 0.00051721 0.00051721 0.000556347 0.000556347 0.000595199 0.000595199 0.000633769 0.000633769 0.00067206 0.00067206 0.000710072 0.000710072 0.00074781 0.00074781 0.000785275 0.000785275 0.00082247 0.00082247 0.000859397 0.000859397 0.000896059 0.000896059 0.000932457 0.000932457 0.000968594 0.000968594 0.00100447 0.00100447 0.00104009 0.00104009 0.00107546 0.00107546 0.00111058 0.00111058 0.00114544 0.00114544 0.00118006 0.00118006 0.00121443 0.00121443 0.00124856 0.00124856 0.00128244 0.00128244 0.00131609 0.00131609 0.00134949 0.00134949 0.00138267 0.00138267 0.0014156 0.0014156 0.00144831 0.00144831 0.00148079 0.00148079 0.00151303 0.00151303 0.00154506 0.00154506 0.00157686 0.00157686 0.00160843 0.00160843 0.00163979 0.00163979 0.00167092 0.00167092 0.00170184 0.00170184 0.00173255 0.00173255 0.00176304 0.00176304 0.00179332 0.00179332 0.00182338 0.00182338 0.00185325 0.00185325 0.0018829 0.0018829 0.00191235 0.00191235 0.0019416 0.0019416 0.00197064 0.00197064 0.00199949 0.00199949 0.00202813 0.00202813 0.00205658 0.00205658 0.00208484 0.00208484 0.0021129 0.0021129 0.00214077 0.00214077 0.00216845 0.00216845 0.00219593 0.00219593 0.00222324 0.00222324 0.00225035 0.00225035 0.00227728 0.00227728 0.00230403 0.00230403 0.0023306 0.0023306 0.00235699 0.00235699 0.00238319 0.00238319 0.00240922 0.00240922 0.00243508 0.00243508 0.00246076 0.00246076 0.00248626 0.00248626 0.0025116 0.0025116 0.00253676 0.00253676 0.00256176 0.00256176 0.00258658 0.00258658 0.00261124 0.00261124 0.00263574 0.00263574 0.00266007 0.00266007 0.00268424 0.00268424 0.00270824 0.00270824 0.00273209 0.00273209 0.00275578 0.00275578 0.00277931 0.00277931 0.00280268 0.00280268 0.00282589 0.00282589 0.00284896 0.00284896 0.00287187 0.00287187 0.00289462 0.00289462 0.00291723 0.00291723 0.00293969 0.00293969 0.002962 0.002962 0.00298416 0.00298416 0.00300617 0.00300617 0.00302804 0.00302804 0.00304977 0.00304977 0.00307135 0.00307135 0.00309279 0.00309279 0.00311409 0.00311409 0.00313525 0.00313525 0.00315627 0.00315627 0.00317715 0.00317715 0.0031979 0.0031979 0.00321851 0.00321851 0.00323899 0.00323899 0.00325933 0.00325933 0.00327954 0.00327954 0.00329962 0.00329962 0.00331956 0.00331956 0.00333938 0.00333938 0.00335907 0.00335907 0.00337863 0.00337863 0.00339806 0.00339806 0.00341737 0.00341737 0.00343655 0.00343655 0.0034556 0.0034556 0.00347454 0.00347454 0.00349335 0.00349335 0.00351204 0.00351204 0.00353061 0.00353061 0.00354906 0.00354906 0.00356739 0.00356739 0.0035856 0.0035856 0.00360369 0.00360369 0.00362167 0.00362167 0.00363953 0.00363953 0.00365728 0.00365728 0.00367492 0.00367492 0.00369244 0.00369244 0.00370984 0.00370984 0.00372714 0.00372714 0.00374433 0.00374433 0.0037614 0.0037614 0.00377837 0.00377837 0.00379523 0.00379523 0.00381198 0.00381198 0.00382862 0.00382862 0.00384516 0.00384516 0.00386159 0.00386159 0.00387792 0.00387792 0.00389414 0.00389414 0.00391026 0.00391026 0.00392628 0.00392628 0.00394219 0.00394219 0.00395801 0.00395801 0.00397372 0.00397372 0.00398934 0.00398934 0.00400485 0.00400485 0.00402027 0.00402027 0.00403559 0.00403559 0.00405081 0.00405081 0.00406594 0.00406594 0.00408097 0.00408097 0.0040959 0.0040959 0.00411075 0.00411075 0.00412549 0.00412549 0.00414015 0.00414015 0.00415471 0.00415471 0.00416918 0.00416918 0.00418356 0.00418356 0.00419785 0.00419785 0.00421205 0.00421205 0.00422616 0.00422616 0.00424018 0.00424018 0.00425411 0.00425411 0.00426796 0.00426796 0.00428171 0.00428171 0.00429539 0.00429539 0.00430897 0.00430897 0.00432247 0.00432247 0.00433589 0.00433589 0.00434922 0.00434922 0.00436247 0.00436247 0.00437564 0.00437564 0.00438872 0.00438872 0.00440172 0.00440172 0.00441464 0.00441464 0.00442748 0.00442748 0.00444024 0.00444024 0.00445292 0.00445292 0.00446552 0.00446552 0.00447804 0.00447804 0.00449049 0.00449049 0.00450286 0.00450286 0.00451514 0.00451514 0.00452736 0.00452736 0.00453949 0.00453949 0.00455156 0.00455156 0.00456354 0.00456354 0.00457545 0.00457545 0.00458729 0.00458729 0.00459905 0.00459905 0.00461074 0.00461074 0.00462236 0.00462236 0.00463391 0.00463391 0.00464538 0.00464538 0.00465679 0.00465679 0.00466812 0.00466812 0.00467938 0.00467938 0.00469057 0.00469057 0.00470169 0.00470169 0.00471275 0.00471275 0.00472373 0.00472373 0.00473465 0.00473465 0.0047455 0.0047455 0.00475628 0.00475628 0.00476699 0.00476699 0.00477764 0.00477764 0.00478823 0.00478823 0.00479874 0.00479874 0.00480919 0.00480919 0.00481958 0.00481958 0.0048299 0.0048299 0.00484016 0.00484016 0.00485036 0.00485036 0.00486049 0.00486049 0.00487056 0.00487056 0.00488057 0.00488057 0.00489052 0.00489052 0.0049004 0.0049004 0.00491022 0.00491022 0.00491999 0.00491999 0.00492969 0.00492969 0.00493933 0.00493933 0.00494891 0.00494891 0.00495844 0.00495844 0.0049679 0.0049679 0.00497731 0.00497731 0.00498666 0.00498666 0.00499595 0.00499595 0.00500518 0.00500518 0.00501436 0.00501436 0.00502347 0.00502347 0.00503254 0.00503254 0.00504154 0.00504154 0.0050505 0.0050505 0.00505939 0.00505939 0.00506823 0.00506823 0.00507702 0.00507702 0.00508575 0.00508575 0.00509443 0.00509443 0.00510305 0.00510305 0.00511162 0.00511162 0.00512014 0.00512014 0.00512861 0.00512861 0.00513702 0.00513702 0.00514538 0.00514538 0.00515369 0.00515369 0.00516195 0.00516195 0.00517016 0.00517016 0.00517832 0.00517832 0.00518642 0.00518642 0.00519448 0.00519448 0.00520248 0.00520248 0.00521044 0.00521044 0.00521835 0.00521835 0.00522621 0.00522621 0.00523402 0.00523402 0.00524178 0.00524178 0.00524949 0.00524949 0.00525716 0.00525716 0.00526478 0.00526478 0.00527235 0.00527235 0.00527987 0.00527987 0.00528735 0.00528735 0.00529478 0.00529478 0.00530216 0.00530216 0.0053095 0.0053095 0.0053168 0.0053168 0.00532405 0.00532405 0.00533125 0.00533125 0.00533841 0.00533841 0.00534552 0.00534552 0.00535259 0.00535259 0.00535962 0.00535962 0.0053666 0.0053666 0.00537354 0.00537354 0.00538044 0.00538044 0.00538729 0.00538729 0.0053941 0.0053941 0.00540087 0.00540087 0.0054076 0.0054076 0.00541428 0.00541428 0.00542092 0.00542092 0.00542753 0.00542753 0.00543409 0.00543409 0.0054406 0.0054406 0.00544708 0.00544708 0.00545352 0.00545352 0.00545992 0.00545992 0.00546628 0.00546628 0.0054726 0.0054726 0.00547887 0.00547887 0.00548511 0.00548511 0.00549131 0.00549131 0.00549748 0.00549748 0.0055036 0.0055036 0.00550968 0.00550968 0.00551573 0.00551573 0.00552174 0.00552174 0.00552771 0.00552771 0.00553364 0.00553364 0.00553954 0.00553954 0.0055454 0.0055454 0.00555122 0.00555122 0.005557 0.005557 0.00556275 0.00556275 0.00556846 0.00556846 0.00557414 0.00557414 0.00557978 0.00557978 0.00558539 0.00558539 0.00559096 0.00559096 0.00559649 0.00559649 0.00560199 0.00560199 0.00560746 0.00560746 0.00561289 0.00561289 0.00561828 0.00561828 0.00562364 0.00562364 0.00562897 0.00562897 0.00563427 0.00563427 0.00563953 0.00563953 0.00564475 0.00564475 0.00564995 0.00564995 0.00565511 0.00565511 0.00566023 0.00566023 0.00566533 0.00566533 0.00567039 0.00567039 0.00567542 0.00567542 0.00568042 0.00568042 0.00568539 0.00568539 0.00569032 0.00569032 0.00569522 0.00569522 0.00570009 0.00570009 0.00570493 0.00570493 0.00570974 0.00570974 0.00571452 0.00571452 0.00571927 0.00571927 0.00572398 0.00572398 0.00572867 0.00572867 0.00573333 0.00573333 0.00573795 0.00573795 0.00574255 0.00574255 0.00574711 0.00574711 0.00575165 0.00575165 0.00575616 0.00575616 0.00576064 0.00576064 0.00576509 0.00576509 0.00576951 0.00576951 0.0057739 0.0057739 0.00577826 0.00577826 0.00578259 0.00578259 0.0057869 0.0057869 0.00579118 0.00579118 0.00579543 0.00579543 0.00579965 0.00579965 0.00580384 0.00580384 0.00580801 0.00580801 0.00581215 0.00581215 0.00581626 0.00581626 0.00582035 0.00582035 0.00582441 0.00582441 0.00582844 0.00582844 0.00583244 0.00583244 0.00583642 0.00583642 0.00584038 0.00584038 0.0058443 0.0058443 0.0058482 0.0058482 0.00585208 0.00585208 0.00585592 0.00585592 0.00585975 0.00585975 0.00586354 0.00586354 0.00586732 0.00586732 0.00587106 0.00587106 0.00587478 0.00587478 0.00587848 0.00587848 0.00588215 0.00588215 0.0058858 0.0058858 0.00588942 0.00588942 0.00589302 0.00589302 0.0058966 0.0058966 0.00590015 0.00590015 0.00590367 0.00590367 0.00590717 0.00590717 0.00591065 0.00591065 0.00591411 0.00591411 0.00591754 0.00591754 0.00592095 0.00592095 0.00592433 0.00592433 0.00592769 0.00592769 0.00593103 0.00593103 0.00593434 0.00593434 0.00593764 0.00593764 0.00594091 0.00594091 0.00594416 0.00594416 0.00594738 0.00594738 0.00595058 0.00595058 0.00595376 0.00595376 0.00595692 0.00595692 0.00596006 0.00596006 0.00596317 0.00596317 0.00596627 0.00596627 0.00596934 0.00596934 0.00597239 0.00597239 0.00597542 0.00597542 0.00597843 0.00597843 0.00598141 0.00598141 0.00598438 0.00598438 0.00598732 0.00598732 0.00599025 0.00599025 0.00599315 0.00599315 0.00599603 0.00599603 0.00599889 0.00599889 0.00600174 0.00600174 0.00600456 0.00600456 0.00600736 0.00600736 0.00601014 0.00601014 0.0060129 0.0060129 0.00601564 0.00601564 0.00601836 0.00601836 0.00602107 0.00602107 0.00602375 0.00602375 0.00602641 0.00602641 0.00602906 0.00602906 0.00603168 0.00603168 0.00603429 0.00603429 0.00603687 0.00603687 0.00603944 0.00603944 0.00604199 0.00604199 0.00604452 0.00604452 0.00604703 0.00604703 0.00604952 0.00604952 0.006052 0.006052 0.00605445 0.00605445 0.00605689 0.00605689 0.00605931 0.00605931 0.00606171 0.00606171 0.0060641 0.0060641 0.00606646 0.00606646 0.00606881 0.00606881 0.00607114 0.00607114 0.00607345 0.00607345 0.00607575 0.00607575 0.00607803 0.00607803 0.00608029 0.00608029 0.00608253 0.00608253 0.00608476 0.00608476 0.00608697 0.00608697 0.00608916 0.00608916 0.00609133 0.00609133 0.00609349 0.00609349 0.00609563 0.00609563 0.00609776 0.00609776 0.00609987 0.00609987 0.00610196 0.00610196 0.00610403 0.00610403 0.00610609 0.00610609 0.00610814 0.00610814 0.00611016 0.00611016 0.00611217 0.00611217 0.00611417 0.00611417 0.00611615 0.00611615 0.00611811 0.00611811 0.00612006 0.00612006 0.00612199 0.00612199 0.00612391 0.00612391 0.00612581 0.00612581 0.00612769 0.00612769 0.00612956 0.00612956 0.00613142 0.00613142 0.00613326 0.00613326 0.00613508 0.00613508 0.00613689 0.00613689 0.00613869 0.00613869 0.00614047 0.00614047 0.00614223 0.00614223 0.00614398 0.00614398 0.00614572 0.00614572 0.00614744 0.00614744 0.00614915 0.00614915 0.00615084 0.00615084 0.00615252 0.00615252 0.00615418 0.00615418 0.00615583 0.00615583 0.00615746 0.00615746 0.00615908 0.00615908 0.00616069 0.00616069 0.00616228 0.00616228 0.00616386 0.00616386 0.00616543 0.00616543 0.00616698 0.00616698 0.00616852 0.00616852 0.00617004 0.00617004 0.00617156 0.00617156 0.00617305 0.00617305 0.00617454 0.00617454 0.00617601 0.00617601 0.00617747 0.00617747 0.00617891 0.00617891 0.00618034 0.00618034 0.00618176 0.00618176 0.00618317 0.00618317 0.00618456 0.00618456 0.00618594 0.00618594 0.0061873 0.0061873 0.00618866 0.00618866 0.00619 0.00619 0.00619133 0.00619133 0.00619265 0.00619265 0.00619395 0.00619395 0.00619524 0.00619524 0.00619652 0.00619652 0.00619779 0.00619779 0.00619904 0.00619904 0.00620028 0.00620028 0.00620151 0.00620151 0.00620273 0.00620273 0.00620394 0.00620394 0.00620513 0.00620513 0.00620631 0.00620631 0.00620748 0.00620748 0.00620864 0.0