# vtk DataFile Version 3.0
#This file was generated by the deal.II library on 2020/9/1 at 14:40:32
ASCII
DATASET UNSTRUCTURED_GRID

POINTS 2048 double
1.5 0 0
1.59619 0 0
1.59619 0 0
1.69238 0 0
1.69238 0 0
1.78857 0 0
1.78857 0 0
1.88477 0 0
1.88477 0 0
1.98096 0 0
1.98096 0 0
2.07715 0 0
2.07715 0 0
2.17334 0 0
2.17334 0 0
2.26953 0 0
2.26953 0 0
2.36572 0 0
2.36572 0 0
2.46191 0 0
2.46191 0 0
2.55811 0 0
2.55811 0 0
2.6543 0 0
2.6543 0 0
2.75049 0 0
2.75049 0 0
2.84668 0 0
2.84668 0 0
2.94287 0 0
2.94287 0 0
3.03906 0 0
3.03906 0 0
3.13525 0 0
3.13525 0 0
3.23145 0 0
3.23145 0 0
3.32764 0 0
3.32764 0 0
3.42383 0 0
3.42383 0 0
3.52002 0 0
3.52002 0 0
3.61621 0 0
3.61621 0 0
3.7124 0 0
3.7124 0 0
3.80859 0 0
3.80859 0 0
3.90479 0 0
3.90479 0 0
4.00098 0 0
4.00098 0 0
4.09717 0 0
4.09717 0 0
4.19336 0 0
4.19336 0 0
4.28955 0 0
4.28955 0 0
4.38574 0 0
4.38574 0 0
4.48193 0 0
4.48193 0 0
4.57812 0 0
4.57812 0 0
4.67432 0 0
4.67432 0 0
4.77051 0 0
4.77051 0 0
4.8667 0 0
4.8667 0 0
4.96289 0 0
4.96289 0 0
5.05908 0 0
5.05908 0 0
5.15527 0 0
5.15527 0 0
5.25146 0 0
5.25146 0 0
5.34766 0 0
5.34766 0 0
5.44385 0 0
5.44385 0 0
5.54004 0 0
5.54004 0 0
5.63623 0 0
5.63623 0 0
5.73242 0 0
5.73242 0 0
5.82861 0 0
5.82861 0 0
5.9248 0 0
5.9248 0 0
6.021 0 0
6.021 0 0
6.11719 0 0
6.11719 0 0
6.21338 0 0
6.21338 0 0
6.30957 0 0
6.30957 0 0
6.40576 0 0
6.40576 0 0
6.50195 0 0
6.50195 0 0
6.59814 0 0
6.59814 0 0
6.69434 0 0
6.69434 0 0
6.79053 0 0
6.79053 0 0
6.88672 0 0
6.88672 0 0
6.98291 0 0
6.98291 0 0
7.0791 0 0
7.0791 0 0
7.17529 0 0
7.17529 0 0
7.27148 0 0
7.27148 0 0
7.36768 0 0
7.36768 0 0
7.46387 0 0
7.46387 0 0
7.56006 0 0
7.56006 0 0
7.65625 0 0
7.65625 0 0
7.75244 0 0
7.75244 0 0
7.84863 0 0
7.84863 0 0
7.94482 0 0
7.94482 0 0
8.04102 0 0
8.04102 0 0
8.13721 0 0
8.13721 0 0
8.2334 0 0
8.2334 0 0
8.32959 0 0
8.32959 0 0
8.42578 0 0
8.42578 0 0
8.52197 0 0
8.52197 0 0
8.61816 0 0
8.61816 0 0
8.71436 0 0
8.71436 0 0
8.81055 0 0
8.81055 0 0
8.90674 0 0
8.90674 0 0
9.00293 0 0
9.00293 0 0
9.09912 0 0
9.09912 0 0
9.19531 0 0
9.19531 0 0
9.2915 0 0
9.2915 0 0
9.3877 0 0
9.3877 0 0
9.48389 0 0
9.48389 0 0
9.58008 0 0
9.58008 0 0
9.67627 0 0
9.67627 0 0
9.77246 0 0
9.77246 0 0
9.86865 0 0
9.86865 0 0
9.96484 0 0
9.96484 0 0
10.061 0 0
10.061 0 0
10.1572 0 0
10.1572 0 0
10.2534 0 0
10.2534 0 0
10.3496 0 0
10.3496 0 0
10.4458 0 0
10.4458 0 0
10.542 0 0
10.542 0 0
10.6382 0 0
10.6382 0 0
10.7344 0 0
10.7344 0 0
10.8306 0 0
10.8306 0 0
10.9268 0 0
10.9268 0 0
11.0229 0 0
11.0229 0 0
11.1191 0 0
11.1191 0 0
11.2153 0 0
11.2153 0 0
11.3115 0 0
11.3115 0 0
11.4077 0 0
11.4077 0 0
11.5039 0 0
11.5039 0 0
11.6001 0 0
11.6001 0 0
11.6963 0 0
11.6963 0 0
11.7925 0 0
11.7925 0 0
11.8887 0 0
11.8887 0 0
11.9849 0 0
11.9849 0 0
12.0811 0 0
12.0811 0 0
12.1772 0 0
12.1772 0 0
12.2734 0 0
12.2734 0 0
12.3696 0 0
12.3696 0 0
12.4658 0 0
12.4658 0 0
12.562 0 0
12.562 0 0
12.6582 0 0
12.6582 0 0
12.7544 0 0
12.7544 0 0
12.8506 0 0
12.8506 0 0
12.9468 0 0
12.9468 0 0
13.043 0 0
13.043 0 0
13.1392 0 0
13.1392 0 0
13.2354 0 0
13.2354 0 0
13.3315 0 0
13.3315 0 0
13.4277 0 0
13.4277 0 0
13.5239 0 0
13.5239 0 0
13.6201 0 0
13.6201 0 0
13.7163 0 0
13.7163 0 0
13.8125 0 0
13.8125 0 0
13.9087 0 0
13.9087 0 0
14.0049 0 0
14.0049 0 0
14.1011 0 0
14.1011 0 0
14.1973 0 0
14.1973 0 0
14.2935 0 0
14.2935 0 0
14.3896 0 0
14.3896 0 0
14.4858 0 0
14.4858 0 0
14.582 0 0
14.582 0 0
14.6782 0 0
14.6782 0 0
14.7744 0 0
14.7744 0 0
14.8706 0 0
14.8706 0 0
14.9668 0 0
14.9668 0 0
15.063 0 0
15.063 0 0
15.1592 0 0
15.1592 0 0
15.2554 0 0
15.2554 0 0
15.3516 0 0
15.3516 0 0
15.4478 0 0
15.4478 0 0
15.5439 0 0
15.5439 0 0
15.6401 0 0
15.6401 0 0
15.7363 0 0
15.7363 0 0
15.8325 0 0
15.8325 0 0
15.9287 0 0
15.9287 0 0
16.0249 0 0
16.0249 0 0
16.1211 0 0
16.1211 0 0
16.2173 0 0
16.2173 0 0
16.3135 0 0
16.3135 0 0
16.4097 0 0
16.4097 0 0
16.5059 0 0
16.5059 0 0
16.6021 0 0
16.6021 0 0
16.6982 0 0
16.6982 0 0
16.7944 0 0
16.7944 0 0
16.8906 0 0
16.8906 0 0
16.9868 0 0
16.9868 0 0
17.083 0 0
17.083 0 0
17.1792 0 0
17.1792 0 0
17.2754 0 0
17.2754 0 0
17.3716 0 0
17.3716 0 0
17.4678 0 0
17.4678 0 0
17.564 0 0
17.564 0 0
17.6602 0 0
17.6602 0 0
17.7563 0 0
17.7563 0 0
17.8525 0 0
17.8525 0 0
17.9487 0 0
17.9487 0 0
18.0449 0 0
18.0449 0 0
18.1411 0 0
18.1411 0 0
18.2373 0 0
18.2373 0 0
18.3335 0 0
18.3335 0 0
18.4297 0 0
18.4297 0 0
18.5259 0 0
18.5259 0 0
18.6221 0 0
18.6221 0 0
18.7183 0 0
18.7183 0 0
18.8145 0 0
18.8145 0 0
18.9106 0 0
18.9106 0 0
19.0068 0 0
19.0068 0 0
19.103 0 0
19.103 0 0
19.1992 0 0
19.1992 0 0
19.2954 0 0
19.2954 0 0
19.3916 0 0
19.3916 0 0
19.4878 0 0
19.4878 0 0
19.584 0 0
19.584 0 0
19.6802 0 0
19.6802 0 0
19.7764 0 0
19.7764 0 0
19.8726 0 0
19.8726 0 0
19.9688 0 0
19.9688 0 0
20.0649 0 0
20.0649 0 0
20.1611 0 0
20.1611 0 0
20.2573 0 0
20.2573 0 0
20.3535 0 0
20.3535 0 0
20.4497 0 0
20.4497 0 0
20.5459 0 0
20.5459 0 0
20.6421 0 0
20.6421 0 0
20.7383 0 0
20.7383 0 0
20.8345 0 0
20.8345 0 0
20.9307 0 0
20.9307 0 0
21.0269 0 0
21.0269 0 0
21.123 0 0
21.123 0 0
21.2192 0 0
21.2192 0 0
21.3154 0 0
21.3154 0 0
21.4116 0 0
21.4116 0 0
21.5078 0 0
21.5078 0 0
21.604 0 0
21.604 0 0
21.7002 0 0
21.7002 0 0
21.7964 0 0
21.7964 0 0
21.8926 0 0
21.8926 0 0
21.9888 0 0
21.9888 0 0
22.085 0 0
22.085 0 0
22.1812 0 0
22.1812 0 0
22.2773 0 0
22.2773 0 0
22.3735 0 0
22.3735 0 0
22.4697 0 0
22.4697 0 0
22.5659 0 0
22.5659 0 0
22.6621 0 0
22.6621 0 0
22.7583 0 0
22.7583 0 0
22.8545 0 0
22.8545 0 0
22.9507 0 0
22.9507 0 0
23.0469 0 0
23.0469 0 0
23.1431 0 0
23.1431 0 0
23.2393 0 0
23.2393 0 0
23.3354 0 0
23.3354 0 0
23.4316 0 0
23.4316 0 0
23.5278 0 0
23.5278 0 0
23.624 0 0
23.624 0 0
23.7202 0 0
23.7202 0 0
23.8164 0 0
23.8164 0 0
23.9126 0 0
23.9126 0 0
24.0088 0 0
24.0088 0 0
24.105 0 0
24.105 0 0
24.2012 0 0
24.2012 0 0
24.2974 0 0
24.2974 0 0
24.3936 0 0
24.3936 0 0
24.4897 0 0
24.4897 0 0
24.5859 0 0
24.5859 0 0
24.6821 0 0
24.6821 0 0
24.7783 0 0
24.7783 0 0
24.8745 0 0
24.8745 0 0
24.9707 0 0
24.9707 0 0
25.0669 0 0
25.0669 0 0
25.1631 0 0
25.1631 0 0
25.2593 0 0
25.2593 0 0
25.3555 0 0
25.3555 0 0
25.4517 0 0
25.4517 0 0
25.5479 0 0
25.5479 0 0
25.644 0 0
25.644 0 0
25.7402 0 0
25.7402 0 0
25.8364 0 0
25.8364 0 0
25.9326 0 0
25.9326 0 0
26.0288 0 0
26.0288 0 0
26.125 0 0
26.125 0 0
26.2212 0 0
26.2212 0 0
26.3174 0 0
26.3174 0 0
26.4136 0 0
26.4136 0 0
26.5098 0 0
26.5098 0 0
26.606 0 0
26.606 0 0
26.7021 0 0
26.7021 0 0
26.7983 0 0
26.7983 0 0
26.8945 0 0
26.8945 0 0
26.9907 0 0
26.9907 0 0
27.0869 0 0
27.0869 0 0
27.1831 0 0
27.1831 0 0
27.2793 0 0
27.2793 0 0
27.3755 0 0
27.3755 0 0
27.4717 0 0
27.4717 0 0
27.5679 0 0
27.5679 0 0
27.6641 0 0
27.6641 0 0
27.7603 0 0
27.7603 0 0
27.8564 0 0
27.8564 0 0
27.9526 0 0
27.9526 0 0
28.0488 0 0
28.0488 0 0
28.145 0 0
28.145 0 0
28.2412 0 0
28.2412 0 0
28.3374 0 0
28.3374 0 0
28.4336 0 0
28.4336 0 0
28.5298 0 0
28.5298 0 0
28.626 0 0
28.626 0 0
28.7222 0 0
28.7222 0 0
28.8184 0 0
28.8184 0 0
28.9146 0 0
28.9146 0 0
29.0107 0 0
29.0107 0 0
29.1069 0 0
29.1069 0 0
29.2031 0 0
29.2031 0 0
29.2993 0 0
29.2993 0 0
29.3955 0 0
29.3955 0 0
29.4917 0 0
29.4917 0 0
29.5879 0 0
29.5879 0 0
29.6841 0 0
29.6841 0 0
29.7803 0 0
29.7803 0 0
29.8765 0 0
29.8765 0 0
29.9727 0 0
29.9727 0 0
30.0688 0 0
30.0688 0 0
30.165 0 0
30.165 0 0
30.2612 0 0
30.2612 0 0
30.3574 0 0
30.3574 0 0
30.4536 0 0
30.4536 0 0
30.5498 0 0
30.5498 0 0
30.646 0 0
30.646 0 0
30.7422 0 0
30.7422 0 0
30.8384 0 0
30.8384 0 0
30.9346 0 0
30.9346 0 0
31.0308 0 0
31.0308 0 0
31.127 0 0
31.127 0 0
31.2231 0 0
31.2231 0 0
31.3193 0 0
31.3193 0 0
31.4155 0 0
31.4155 0 0
31.5117 0 0
31.5117 0 0
31.6079 0 0
31.6079 0 0
31.7041 0 0
31.7041 0 0
31.8003 0 0
31.8003 0 0
31.8965 0 0
31.8965 0 0
31.9927 0 0
31.9927 0 0
32.0889 0 0
32.0889 0 0
32.1851 0 0
32.1851 0 0
32.2812 0 0
32.2812 0 0
32.3774 0 0
32.3774 0 0
32.4736 0 0
32.4736 0 0
32.5698 0 0
32.5698 0 0
32.666 0 0
32.666 0 0
32.7622 0 0
32.7622 0 0
32.8584 0 0
32.8584 0 0
32.9546 0 0
32.9546 0 0
33.0508 0 0
33.0508 0 0
33.147 0 0
33.147 0 0
33.2432 0 0
33.2432 0 0
33.3394 0 0
33.3394 0 0
33.4355 0 0
33.4355 0 0
33.5317 0 0
33.5317 0 0
33.6279 0 0
33.6279 0 0
33.7241 0 0
33.7241 0 0
33.8203 0 0
33.8203 0 0
33.9165 0 0
33.9165 0 0
34.0127 0 0
34.0127 0 0
34.1089 0 0
34.1089 0 0
34.2051 0 0
34.2051 0 0
34.3013 0 0
34.3013 0 0
34.3975 0 0
34.3975 0 0
34.4937 0 0
34.4937 0 0
34.5898 0 0
34.5898 0 0
34.686 0 0
34.686 0 0
34.7822 0 0
34.7822 0 0
34.8784 0 0
34.8784 0 0
34.9746 0 0
34.9746 0 0
35.0708 0 0
35.0708 0 0
35.167 0 0
35.167 0 0
35.2632 0 0
35.2632 0 0
35.3594 0 0
35.3594 0 0
35.4556 0 0
35.4556 0 0
35.5518 0 0
35.5518 0 0
35.6479 0 0
35.6479 0 0
35.7441 0 0
35.7441 0 0
35.8403 0 0
35.8403 0 0
35.9365 0 0
35.9365 0 0
36.0327 0 0
36.0327 0 0
36.1289 0 0
36.1289 0 0
36.2251 0 0
36.2251 0 0
36.3213 0 0
36.3213 0 0
36.4175 0 0
36.4175 0 0
36.5137 0 0
36.5137 0 0
36.6099 0 0
36.6099 0 0
36.7061 0 0
36.7061 0 0
36.8022 0 0
36.8022 0 0
36.8984 0 0
36.8984 0 0
36.9946 0 0
36.9946 0 0
37.0908 0 0
37.0908 0 0
37.187 0 0
37.187 0 0
37.2832 0 0
37.2832 0 0
37.3794 0 0
37.3794 0 0
37.4756 0 0
37.4756 0 0
37.5718 0 0
37.5718 0 0
37.668 0 0
37.668 0 0
37.7642 0 0
37.7642 0 0
37.8604 0 0
37.8604 0 0
37.9565 0 0
37.9565 0 0
38.0527 0 0
38.0527 0 0
38.1489 0 0
38.1489 0 0
38.2451 0 0
38.2451 0 0
38.3413 0 0
38.3413 0 0
38.4375 0 0
38.4375 0 0
38.5337 0 0
38.5337 0 0
38.6299 0 0
38.6299 0 0
38.7261 0 0
38.7261 0 0
38.8223 0 0
38.8223 0 0
38.9185 0 0
38.9185 0 0
39.0146 0 0
39.0146 0 0
39.1108 0 0
39.1108 0 0
39.207 0 0
39.207 0 0
39.3032 0 0
39.3032 0 0
39.3994 0 0
39.3994 0 0
39.4956 0 0
39.4956 0 0
39.5918 0 0
39.5918 0 0
39.688 0 0
39.688 0 0
39.7842 0 0
39.7842 0 0
39.8804 0 0
39.8804 0 0
39.9766 0 0
39.9766 0 0
40.0728 0 0
40.0728 0 0
40.1689 0 0
40.1689 0 0
40.2651 0 0
40.2651 0 0
40.3613 0 0
40.3613 0 0
40.4575 0 0
40.4575 0 0
40.5537 0 0
40.5537 0 0
40.6499 0 0
40.6499 0 0
40.7461 0 0
40.7461 0 0
40.8423 0 0
40.8423 0 0
40.9385 0 0
40.9385 0 0
41.0347 0 0
41.0347 0 0
41.1309 0 0
41.1309 0 0
41.2271 0 0
41.2271 0 0
[...]
POINT_DATA 2048
SCALARS solution_0 double 1
LOOKUP_TABLE default
0.0652726 0.0653394 0.0653394 0.0653261 0.0653261 0.0652544 0.0652544 0.0651396 0.0651396 0.0649927 0.0649927 0.0648218 0.0648218 0.0646329 0.0646329 0.0644307 0.0644307 0.0642186 0.0642186 0.0639994 0.0639994 0.0637752 0.0637752 0.0635476 0.0635476 0.063318 0.063318 0.0630875 0.0630875 0.0628569 0.0628569 0.0626268 0.0626268 0.0623979 0.0623979 0.0621704 0.0621704 0.0619447 0.0619447 0.0617212 0.0617212 0.0615 0.0615 0.0612813 0.0612813 0.0610652 0.0610652 0.0608518 0.0608518 0.0606412 0.0606412 0.0604334 0.0604334 0.0602285 0.0602285 0.0600264 0.0600264 0.0598271 0.0598271 0.0596308 0.0596308 0.0594373 0.0594373 0.0592466 0.0592466 0.0590586 0.0590586 0.0588735 0.0588735 0.0586911 0.0586911 0.0585114 0.0585114 0.0583343 0.0583343 0.0581599 0.0581599 0.057988 0.057988 0.0578186 0.0578186 0.0576518 0.0576518 0.0574873 0.0574873 0.0573253 0.0573253 0.0571656 0.0571656 0.0570082 0.0570082 0.0568531 0.0568531 0.0567002 0.0567002 0.0565495 0.0565495 0.056401 0.056401 0.0562545 0.0562545 0.0561101 0.0561101 0.0559676 0.0559676 0.0558272 0.0558272 0.0556887 0.0556887 0.0555521 0.0555521 0.0554174 0.0554174 0.0552845 0.0552845 0.0551534 0.0551534 0.055024 0.055024 0.0548963 0.0548963 0.0547704 0.0547704 0.0546461 0.0546461 0.0545234 0.0545234 0.0544024 0.0544024 0.0542829 0.0542829 0.0541649 0.0541649 0.0540484 0.0540484 0.0539334 0.0539334 0.0538199 0.0538199 0.0537078 0.0537078 0.0535971 0.0535971 0.0534877 0.0534877 0.0533797 0.0533797 0.053273 0.053273 0.0531677 0.0531677 0.0530636 0.0530636 0.0529607 0.0529607 0.0528591 0.0528591 0.0527587 0.0527587 0.0526595 0.0526595 0.0525614 0.0525614 0.0524645 0.0524645 0.0523687 0.0523687 0.052274 0.052274 0.0521805 0.0521805 0.052088 0.052088 0.0519965 0.0519965 0.0519061 0.0519061 0.0518167 0.0518167 0.0517282 0.0517282 0.0516408 0.0516408 0.0515544 0.0515544 0.0514689 0.0514689 0.0513843 0.0513843 0.0513007 0.0513007 0.0512179 0.0512179 0.0511361 0.0511361 0.0510551 0.0510551 0.050975 0.050975 0.0508958 0.0508958 0.0508173 0.0508173 0.0507397 0.0507397 0.050663 0.050663 0.050587 0.050587 0.0505118 0.0505118 0.0504374 0.0504374 0.0503637 0.0503637 0.0502908 0.0502908 0.0502187 0.0502187 0.0501472 0.0501472 0.0500765 0.0500765 0.0500065 0.0500065 0.0499372 0.0499372 0.0498686 0.0498686 0.0498006 0.0498006 0.0497333 0.0497333 0.0496667 0.0496667 0.0496008 0.0496008 0.0495354 0.0495354 0.0494707 0.0494707 0.0494066 0.0494066 0.0493432 0.0493432 0.0492803 0.0492803 0.049218 0.049218 0.0491563 0.0491563 0.0490952 0.0490952 0.0490347 0.0490347 0.0489747 0.0489747 0.0489153 0.0489153 0.0488564 0.0488564 0.0487981 0.0487981 0.0487403 0.0487403 0.048683 0.048683 0.0486262 0.0486262 0.04857 0.04857 0.0485142 0.0485142 0.048459 0.048459 0.0484042 0.0484042 0.04835 0.04835 0.0482962 0.0482962 0.0482428 0.0482428 0.04819 0.04819 0.0481376 0.0481376 0.0480856 0.0480856 0.0480341 0.0480341 0.0479831 0.0479831 0.0479324 0.0479324 0.0478822 0.0478822 0.0478325 0.0478325 0.0477831 0.0477831 0.0477342 0.0477342 0.0476857 0.0476857 0.0476375 0.0476375 0.0475898 0.0475898 0.0475425 0.0475425 0.0474955 0.0474955 0.047449 0.047449 0.0474028 0.0474028 0.047357 0.047357 0.0473115 0.0473115 0.0472664 0.0472664 0.0472217 0.0472217 0.0471774 0.0471774 0.0471333 0.0471333 0.0470897 0.0470897 0.0470463 0.0470463 0.0470034 0.0470034 0.0469607 0.0469607 0.0469184 0.0469184 0.0468764 0.0468764 0.0468347 0.0468347 0.0467933 0.0467933 0.0467523 0.0467523 0.0467115 0.0467115 0.0466711 0.0466711 0.0466309 0.0466309 0.0465911 0.0465911 0.0465515 0.0465515 0.0465123 0.0465123 0.0464733 0.0464733 0.0464346 0.0464346 0.0463962 0.0463962 0.0463581 0.0463581 0.0463202 0.0463202 0.0462826 0.0462826 0.0462453 0.0462453 0.0462082 0.0462082 0.0461714 0.0461714 0.0461349 0.0461349 0.0460986 0.0460986 0.0460625 0.0460625 0.0460267 0.0460267 0.0459912 0.0459912 0.0459558 0.0459558 0.0459208 0.0459208 0.0458859 0.0458859 0.0458513 0.0458513 0.0458169 0.0458169 0.0457827 0.0457827 0.0457487 0.0457487 0.045715 0.045715 0.0456814 0.0456814 0.0456481 0.0456481 0.045615 0.045615 0.045582 0.045582 0.0455493 0.0455493 0.0455168 0.0455168 0.0454844 0.0454844 0.0454523 0.0454523 0.0454203 0.0454203 0.0453885 0.0453885 0.0453569 0.0453569 0.0453255 0.0453255 0.0452942 0.0452942 0.0452631 0.0452631 0.0452321 0.0452321 0.0452013 0.0452013 0.0451707 0.0451707 0.0451402 0.0451402 0.0451098 0.0451098 0.0450796 0.0450796 0.0450495 0.0450495 0.0450195 0.0450195 0.0449896 0.0449896 0.0449598 0.0449598 0.0449302 0.0449302 0.0449006 0.0449006 0.0448711 0.0448711 0.0448417 0.0448417 0.0448124 0.0448124 0.0447831 0.0447831 0.0447539 0.0447539 0.0447247 0.0447247 0.0446956 0.0446956 0.0446665 0.0446665 0.0446374 0.0446374 0.0446083 0.0446083 0.0445791 0.0445791 0.04455 0.04455 0.0445207 0.0445207 0.0444915 0.0444915 0.0444621 0.0444621 0.0444327 0.0444327 0.0444031 0.0444031 0.0443734 0.0443734 0.0443436 0.0443436 0.0443136 0.0443136 0.0442834 0.0442834 0.044253 0.044253 0.0442223 0.0442223 0.0441913 0.0441913 0.0441601 0.0441601 0.0441285 0.0441285 0.0440966 0.0440966 0.0440643 0.0440643 0.0440316 0.0440316 0.0439984 0.0439984 0.0439647 0.0439647 0.0439305 0.0439305 0.0438957 0.0438957 0.0438603 0.0438603 0.0438242 0.0438242 0.0437875 0.0437875 0.04375 0.04375 0.0437117 0.0437117 0.0436725 0.0436725 0.0436325 0.0436325 0.0435915 0.0435915 0.0435495 0.0435495 0.0435064 0.0435064 0.0434623 0.0434623 0.0434169 0.0434169 0.0433703 0.0433703 0.0433224 0.0433224 0.0432731 0.0432731 0.0432223 0.0432223 0.0431701 0.0431701 0.0431163 0.0431163 0.0430608 0.0430608 0.0430036 0.0430036 0.0429446 0.0429446 0.0428837 0.0428837 0.0428209 0.0428209 0.042756 0.042756 0.0426891 0.0426891 0.0426199 0.0426199 0.0425485 0.0425485 0.0424748 0.0424748 0.0423987 0.0423987 0.04232 0.04232 0.0422388 0.0422388 0.042155 0.042155 0.0420684 0.0420684 0.041979 0.041979 0.0418868 0.0418868 0.0417916 0.0417916 0.0416934 0.0416934 0.0415921 0.0415921 0.0414877 0.0414877 0.0413801 0.0413801 0.0412692 0.0412692 0.0411549 0.0411549 0.0410373 0.0410373 0.0409162 0.0409162 0.0407917 0.0407917 0.0406636 0.0406636 0.040532 0.040532 0.0403967 0.0403967 0.0402578 0.0402578 0.0401153 0.0401153 0.0399691 0.0399691 0.0398192 0.0398192 0.0396656 0.0396656 0.0395083 0.0395083 0.0393473 0.0393473 0.0391826 0.0391826 0.0390143 0.0390143 0.0388422 0.0388422 0.0386666 0.0386666 0.0384873 0.0384873 0.0383045 0.0383045 0.0381183 0.0381183 0.0379285 0.0379285 0.0377354 0.0377354 0.0375389 0.0375389 0.0373392 0.0373392 0.0371363 0.0371363 0.0369304 0.0369304 0.0367215 0.0367215 0.0365097 0.0365097 0.0362951 0.0362951 0.0360778 0.0360778 0.035858 0.035858 0.0356358 0.0356358 0.0354113 0.0354113 0.0351846 0.0351846 0.0349558 0.0349558 0.0347252 0.0347252 0.0344929 0.0344929 0.034259 0.034259 0.0340236 0.0340236 0.033787 0.033787 0.0335493 0.0335493 0.0333106 0.0333106 0.0330711 0.0330711 0.032831 0.032831 0.0325904 0.0325904 0.0323495 0.0323495 0.0321085 0.0321085 0.0318676 0.0318676 0.0316269 0.0316269 0.0313865 0.0313865 0.0311467 0.0311467 0.0309076 0.0309076 0.0306693 0.0306693 0.0304321 0.0304321 0.0301961 0.0301961 0.0299613 0.0299613 0.0297281 0.0297281 0.0294965 0.0294965 0.0292666 0.0292666 0.0290386 0.0290386 0.0288127 0.0288127 0.0285889 0.0285889 0.0283674 0.0283674 0.0281482 0.0281482 0.0279316 0.0279316 0.0277176 0.0277176 0.0275062 0.0275062 0.0272976 0.0272976 0.027092 0.027092 0.0268892 0.0268892 0.0266895 0.0266895 0.0264928 0.0264928 0.0262993 0.0262993 0.026109 0.026109 0.025922 0.025922 0.0257382 0.0257382 0.0255577 0.0255577 0.0253805 0.0253805 0.0252067 0.0252067 0.0250363 0.0250363 0.0248692 0.0248692 0.0247055 0.0247055 0.0245452 0.0245452 0.0243883 0.0243883 0.0242347 0.0242347 0.0240844 0.0240844 0.0239374 0.0239374 0.0237937 0.0237937 0.0236533 0.0236533 0.023516 0.023516 0.0233819 0.0233819 0.0232509 0.0232509 0.023123 0.023123 0.022998 0.022998 0.0228761 0.0228761 0.022757 0.022757 0.0226407 0.0226407 0.0225272 0.0225272 0.0224164 0.0224164 0.0223082 0.0223082 0.0222026 0.0222026 0.0220994 0.0220994 0.0219987 0.0219987 0.0219003 0.0219003 0.0218042 0.0218042 0.0217103 0.0217103 0.0216185 0.0216185 0.0215287 0.0215287 0.0214409 0.0214409 0.0213549 0.0213549 0.0212708 0.0212708 0.0211884 0.0211884 0.0211076 0.0211076 0.0210284 0.0210284 0.0209508 0.0209508 0.0208745 0.0208745 0.0207997 0.0207997 0.0207261 0.0207261 0.0206537 0.0206537 0.0205824 0.0205824 0.0205123 0.0205123 0.0204431 0.0204431 0.0203749 0.0203749 0.0203076 0.0203076 0.0202411 0.0202411 0.0201753 0.0201753 0.0201103 0.0201103 0.0200458 0.0200458 0.019982 0.019982 0.0199186 0.0199186 0.0198557 0.0198557 0.0197933 0.0197933 0.0197311 0.0197311 0.0196693 0.0196693 0.0196078 0.0196078 0.0195464 0.0195464 0.0194852 0.0194852 0.0194241 0.0194241 0.0193631 0.0193631 0.0193021 0.0193021 0.0192411 0.0192411 0.01918 0.01918 0.0191188 0.0191188 0.0190575 0.0190575 0.018996 0.018996 0.0189343 0.0189343 0.0188724 0.0188724 0.0188102 0.0188102 0.0187476 0.0187476 0.0186847 0.0186847 0.0186214 0.0186214 0.0185577 0.0185577 0.0184935 0.0184935 0.0184289 0.0184289 0.0183637 0.0183637 0.018298 0.018298 0.0182318 0.0182318 0.0181649 0.0181649 0.0180974 0.0180974 0.0180293 0.0180293 0.0179605 0.0179605 0.0178909 0.0178909 0.0178207 0.0178207 0.0177497 0.0177497 0.0176779 0.0176779 0.0176053 0.0176053 0.0175319 0.0175319 0.0174576 0.0174576 0.0173824 0.0173824 0.0173063 0.0173063 0.0172293 0.0172293 0.0171514 0.0171514 0.0170724 0.0170724 0.0169925 0.0169925 0.0169115 0.0169115 0.0168295 0.0168295 0.0167464 0.0167464 0.0166622 0.0166622 0.0165769 0.0165769 0.0164905 0.0164905 0.0164029 0.0164029 0.0163141 0.0163141 0.016224 0.016224 0.0161328 0.0161328 0.0160402 0.0160402 0.0159464 0.0159464 0.0158512 0.0158512 0.0157547 0.0157547 0.0156568 0.0156568 0.0155575 0.0155575 0.0154568 0.0154568 0.0153546 0.0153546 0.0152509 0.0152509 0.0151456 0.0151456 0.0150388 0.0150388 0.0149304 0.0149304 0.0148203 0.0148203 0.0147084 0.0147084 0.0145949 0.0145949 0.0144795 0.0144795 0.0143623 0.0143623 0.0142432 0.0142432 0.0141221 0.0141221 0.013999 0.013999 0.0138738 0.0138738 0.0137463 0.0137463 0.0136166 0.0136166 0.0134845 0.0134845 0.01335 0.01335 0.0132129 0.0132129 0.0130731 0.0130731 0.0129304 0.0129304 0.0127848 0.0127848 0.0126361 0.0126361 0.0124841 0.0124841 0.0123287 0.0123287 0.0121696 0.0121696 0.0120066 0.0120066 0.0118396 0.0118396 0.0116683 0.0116683 0.0114923 0.0114923 0.0113115 0.0113115 0.0111255 0.0111255 0.010934 0.010934 0.0107366 0.0107366 0.0105329 0.0105329 0.0103226 0.0103226 0.0101051 0.0101051 0.00987996 0.00987996 0.0096467 0.0096467 0.00940475 0.00940475 0.00915351 0.00915351 0.00889235 0.00889235 0.00862058 0.00862058 0.00833747 0.00833747 0.00804227 0.00804227 0.00773414 0.00773414 0.0074122 0.0074122 0.00707553 0.00707553 0.00672315 0.00672315 0.006354 0.006354 0.00596699 0.00596699 0.00556094 0.00556094 0.00513463 0.00513463 0.00468675 0.00468675 0.00421594 0.00421594 0.00372076 0.00372076 0.0031997 0.0031997 0.00265119 0.00265119 0.00207357 0.00207357 0.00146512 0.00146512 0.000824021 0.000824021 0.000148407 0.000148407 -0.000563678 -0.000563678 -0.00131426 -0.00131426 -0.00210545 -0.00210545 -0.00293942 -0.00293942 -0.00381842 -0.00381842 -0.00474477 -0.00474477 -0.00572085 -0.00572085 -0.00674912 -0.00674912 -0.00783209 -0.00783209 -0.00897233 -0.00897233 -0.0101725 -0.0101725 -0.0114352 -0.0114352 -0.0127632 -0.0127632 -0.0141592 -0.0141592 -0.015626 -0.015626 -0.0171664 -0.0171664 -0.0187833 -0.0187833 -0.0204793 -0.0204793 -0.0222574 -0.0222574 -0.0241203 -0.0241203 -0.0260707 -0.0260707 -0.0281114 -0.0281114 -0.0302449 -0.0302449 -0.0324739 -0.0324739 -0.0348009 -0.0348009 -0.0372281 -0.0372281 -0.0397579 -0.0397579 -0.0423923 -0.0423923 -0.0451332 -0.0451332 -0.0479825 -0.0479825 -0.0509417 -0.0509417 -0.054012 -0.054012 -0.0571946 -0.0571946 -0.0604903 -0.0604903 -0.0638996 -0.0638996 -0.0674227 -0.0674227 -0.0710594 -0.0710594 -0.0748091 -0.0748091 -0.0786711 -0.0786711 -0.0826439 -0.0826439 -0.0867258 -0.0867258 -0.0909144 -0.0909144 -0.0952072 -0.0952072 -0.0996006 -0.0996006 -0.104091 -0.104091 -0.108674 -0.108674 -0.113345 -0.113345 -0.118097 -0.118097 -0.122925 -0.122925 -0.127822 -0.127822 -0.132781 -0.132781 -0.137792 -0.137792 -0.142847 -0.142847 -0.147936 -0.147936 -0.153049 -0.153049 -0.158174 -0.158174 -0.1633 -0.1633 -0.168413 -0.168413 -0.173501 -0.173501 -0.178548 -0.178548 -0.183541 -0.183541 -0.188462 -0.188462 -0.193295 -0.193295 -0.198024 -0.198024 -0.20263 -0.20263 -0.207094 -0.207094 -0.211397 -0.211397 -0.215519 -0.215519 -0.219439 -0.219439 -0.223136 -0.223136 -0.226589 -0.226589 -0.229775 -0.229775 -0.232671 -0.232671 -0.235254 -0.235254 -0.237502 -0.237502 -0.23939 -0.23939 -0.240895 -0.240895 -0.241992 -0.241992 -0.242658 -0.242658 -0.242869 -0.242869 -0.2426 -0.2426 -0.241829 -0.241829 -0.240532 -0.240532 -0.238685 -0.238685 -0.236267 -0.236267 -0.233256 -0.233256 -0.22963 -0.22963 -0.225368 -0.225368 -0.220452 -0.220452 -0.214862 -0.214862 -0.208581 -0.208581 -0.201592 -0.201592 -0.193881 -0.193881 -0.185433 -0.185433 -0.176236 -0.176236 -0.16628 -0.16628 -0.155555 -0.155555 -0.144053 -0.144053 -0.13177 -0.13177 -0.118702 -0.118702 -0.104847 -0.104847 -0.0902061 -0.0902061 -0.0747809 -0.0747809 -0.0585765 -0.0585765 -0.0416 -0.0416 -0.0238605 -0.0238605 -0.00536977 -0.00536977 0.0138584 0.0138584 0.0338077 0.0338077 0.0544594 0.0544594 0.0757926 0.0757926 0.0977837 0.0977837 0.120407 0.120407 0.143634 0.143634 0.167435 0.167435 0.191777 0.191777 0.216626 0.216626 0.241943 0.241943 0.267691 0.267691 0.293828 0.293828 0.320311 0.320311 0.347097 0.347097 0.374138 0.374138 0.401387 0.401387 0.428795 0.428795 0.456311 0.456311 0.483885 0.483885 0.511463 0.511463 0.538993 0.538993 0.566422 0.566422 0.593694 0.593694 0.620755 0.620755 0.647551 0.647551 0.674028 0.674028 0.700131 0.700131 0.725807 0.725807 0.751003 0.751003 0.775666 0.775666 0.799745 0.799745 0.823192 0.823192 0.845955 0.845955 0.86799 0.86799 0.88925 0.88925 0.909692 0.909692 0.929274 0.929274 0.947957 0.947957 0.965704 0.965704 0.98248 0.98248 0.998253 0.998253 1.01299 1.01299 1.02667 1.02667 1.03927 1.03927 1.05076 1.05076 1.06113 1.06113 1.07036 1.07036 1.07845 1.07845 1.08537 1.08537 1.09112 1.09112 1.09571 1.09571 1.09912 1.09912 1.10138 1.10138 1.10247 1.10247 1.10241 1.10241 1.1012 1.1012 1.09888 1.09888 1.09544 1.09544 1.09092 1.09092 1.08533 1.08533 1.0787 1.0787 1.07106 1.07106 1.06243 1.06243 1.05284 1.05284 1.04233 1.04233 1.03094 1.03094 1.0187 1.0187 1.00564 1.00564 0.991807 0.991807 0.977243 0.977243 0.961986 0.961986 0.946079 0.946079 0.929564 0.929564 0.912485 0.912485 0.894884 0.894884 0.876806 0.876806 0.858295 0.858295 0.839394 0.839394 0.820146 0.820146 0.800595 0.800595 0.780784 0.780784 0.760754 0.760754 0.740546 0.740546 0.720202 0.720202 0.69976 0.69976 0.679259 0.679259 0.658737 0.658737 0.638229 0.638229 0.617771 0.617771 0.597396 0.597396 0.577136 0.577136 0.557021 0.557021 0.537081 0.537081 0.517344 0.517344 0.497835 0.497835 0.478579 0.478579 0.459599 0.459599 0.440916 0.440916 0.42255 0.42255 0.404518 0.404518 0.386837 0.386837 0.369523 0.369523 0.352588 0.352588 0.336044 0.336044 0.319902 0.319902 0.30417 0.30417 0.288856 0.288856 0.273967 0.273967 0.259506 0.259506 0.245478 0.245478 0.231884 0.231884 0.218726 0.218726 0.206004 0.206004 0.193718 0.193718 0.181864 0.181864 0.17044 0.17044 0.159443 0.159443 0.148867 0.148867 0.138708 0.138708 0.128959 0.128959 0.119614 0.119614 0.110666 0.110666 0.102106 0.102106 0.0939267 0.0939267 0.0861194 0.0861194 0.0786749 0.0786749 0.071584 0.071584 0.0648371 0.0648371 0.0584245 0.0584245 0.0523361 0.0523361 0.0465619 0.0465619 0.0410916 0.0410916 0.0359151 0.0359151 0.031022 0.031022 0.0264021 0.0264021 0.0220452 0.0220452 0.0179411 0.0179411 0.0140798 0.0140798 0.0104513 0.0104513 0.00704591 0.00704591 0.00385393 0.00385393 0.000865938 0.000865938 -0.00192733 -0.00192733 -0.00453492 -0.00453492 -0.00696565 -0.00696565 -0.00922812 -0.00922812 -0.0113307 -0.0113307 -0.0132814 -0.0132814 -0.0150882 -0.0150882 -0.0167587 -0.0167587 -0.0183001 -0.0183001 -0.0197196 -0.0197196 -0.0210239 -0.0210239 -0.0222197 -0.0222197 -0.0233131 -0.0233131 -0.0243102 -0.0243102 -0.0252169 -0.0252169 -0.0260385 -0.0260385 -0.0267804 -0.0267804 -0.0274475 -0.0274475 -0.0280448 -0.0280448 -0.0285766 -0.0285766 -0.0290474 -0.0290474 -0.0294612 -0.0294612 -0.029822 -0.029822 -0.0301333 -0.0301333 -0.0303987 -0.0303987 -0.0306215 -0.0306215 -0.0308047 -0.0308047 -0.0309513 -0.0309513 -0.0310641 -0.0310641 -0.0311455 -0.0311455 -0.0311981 -0.0311981 -0.0312241 -0.0312241 -0.0312256 -0.0312256 -0.0312047 -0.0312047 -0.0311632 -0.0311632 -0.0311028 -0.0311028 -0.0310253 -0.0310253 -0.030932 -0.030932 -0.0308244 -0.0308244 -0.0307038 -0.0307038 -0.0305715 -0.0305715 -0.0304285 -0.0304285 -0.030276 -0.030276 -0.0301148 -0.0301148 -0.029946 -0.029946 -0.0297702 -0.0297702 -0.0295884 -0.0295884 -0.0294011 -0.0294011 -0.0292091 -0.0292091 -0.0290129 -0.0290129 -0.0288131 -0.0288131 -0.0286102 -0.0286102 -0.0284047 -0.0284047 -0.0281969 -0.0281969 -0.0279873 -0.0279873 -0.0277763 -0.0277763 -0.027564 -0.027564 -0.0273509 -0.0273509 -0.0271372 -0.0271372 -0.0269232 -0.0269232 -0.0267089 -0.0267089 -0.0264948 -0.0264948 -0.0262809 -0.0262809 -0.0260674 -0.0260674 -0.0258544 -0.0258544 -0.025642 -0.025642 -0.0254305 -0.0254305 -0.0252199 -0.0252199 -0.0250102 -0.0250102 -0.0248016 -0.0248016 -0.0245941 -0.0245941 -0.0243878 -0.0243878 -0.0241827 -0.0241827 -0.023979 -0.023979 -0.0237766 -0.0237766 -0.0235755 -0.0235755 -0.0233759 -0.0233759 -0.0231776 -0.0231776 -0.0229809 -0.0229809 -0.0227855 -0.0227855 -0.0225917 -0.0225917 -0.0223994 -0.0223994 -0.0222085 -0.0222085 -0.0220191 -0.0220191 -0.0218312 -0.0218312 -0.0216449 -0.0216449 -0.02146 -0.02146 -0.0212766 -0.0212766 -0.0210947 -0.0210947 -0.0209143 -0.0209143 -0.0207353 -0.0207353 -0.0205578 -0.0205578 -0.0203818 -0.0203818 -0.0202072 -0.0202072 -0.0200341 -0.0200341 -0.0198624 -0.0198624 -0.019692 -0.019692 -0.0195231 -0.0195231 -0.0193556 -0.0193556 -0.0191895 -0.0191895 -0.0190247 -0.0190247 -0.0188612 -0.0188612 -0.0186991 -0.0186991 -0.0185384 -0.0185384 -0.0183789 -0.0183789 -0.0182207 -0.0182207 -0.0180638 -0.0180638 -0.0179082 -0.0179082 -0.0177539 -0.0177539 -0.0176008 -0.0176008 -0.0174489 -0.0174489 -0.0172982 -0.0172982 -0.0171487 -0.0171487 -0.0170005 -0.0170005 -0.0168534 -0.0168534 -0.0167075 -0.0167075 -0.0165627 -0.0165627 -0.016419 -0.016419 -0.0162765 -0.0162765 -0.0161352 -0.0161352 -0.0159949 -0.0159949 -0.0158557 -0.0158557 -0.0157176 -0.0157176 -0.0155805 -0.0155805 -0.0154445 -0.0154445 -0.0153096 -0.0153096 -0.0151757 -0.0151757 -0.0150428 -0.0150428 -0.014911 -0.014911 -0.0147801 -0.0147801 -0.0146502 -0.0146502 -0.0145213 -0.0145213 -0.0143934 -0.0143934 -0.0142665 -0.0142665 -0.0141405 -0.0141405 -0.0140154 -0.0140154 -0.0138913 -0.0138913 -0.0137681 -0.0137681 -0.0136458 -0.0136458 -0.0135244 -0.0135244 -0.0134038 -0.0134038 -0.0132842 -0.0132842 -0.0131655 -0.0131655 -0.0130476 -0.0130476 -0.0129306 -0.0129306 -0.0128144 -0.0128144 -0.0126991 -0.0126991 -0.0125846 -0.0125846 -0.0124709 -0.0124709 -0.012358 -0.012358 -0.0122459 -0.0122459 -0.0121347 -0.0121347 -0.0120242 -0.0120242 -0.0119145 -0.0119145 -0.0118056 -0.0118056 -0.0116975 -0.0116975 -0.0115901 -0.0115901 -0.0114834 -0.0114834 -0.0113775 -0.0113775 -0.0112724 -0.0112724 -0.011168 -0.011168 -0.0110643 -0.0110643 -0.0109613 -0.0109613 -0.010859 -0.010859 -0.0107574 -0.0107574 -0.0106565 -0.0106565 -0.0105563 -0.0105563 -0.0104568 -0.0104568 -0.010358 -0.010358 -0.0102598 -0.0102598 -0.0101623 -0.0101623 -0.0100655 -0.0100655 -0.00996931 -0.00996931 -0.00987376 -0.00987376 -0.00977885 -0.00977885 -0.00968457 -0.00968457 -0.00959092 -0.00959092 -0.00949788 -0.00949788 -0.00940547 -0.00940547 -0.00931366 -0.00931366 -0.00922246 -0.00922246 -0.00913185 -0.00913185 -0.00904184 -0.00904184 -0.00895241 -0.00895241 -0.00886356 -0.00886356 -0.00877529 -0.00877529 -0.0086876 -0.0