# vtk DataFile Version 3.0
#This file was generated by the deal.II library on 2020/9/1 at 14:41:46
ASCII
DATASET UNSTRUCTURED_GRID

POINTS 2048 double
1.5 0 0
1.59619 0 0
1.59619 0 0
1.69238 0 0
1.69238 0 0
1.78857 0 0
1.78857 0 0
1.88477 0 0
1.88477 0 0
1.98096 0 0
1.98096 0 0
2.07715 0 0
2.07715 0 0
2.17334 0 0
2.17334 0 0
2.26953 0 0
2.26953 0 0
2.36572 0 0
2.36572 0 0
2.46191 0 0
2.46191 0 0
2.55811 0 0
2.55811 0 0
2.6543 0 0
2.6543 0 0
2.75049 0 0
2.75049 0 0
2.84668 0 0
2.84668 0 0
2.94287 0 0
2.94287 0 0
3.03906 0 0
3.03906 0 0
3.13525 0 0
3.13525 0 0
3.23145 0 0
3.23145 0 0
3.32764 0 0
3.32764 0 0
3.42383 0 0
3.42383 0 0
3.52002 0 0
3.52002 0 0
3.61621 0 0
3.61621 0 0
3.7124 0 0
3.7124 0 0
3.80859 0 0
3.80859 0 0
3.90479 0 0
3.90479 0 0
4.00098 0 0
4.00098 0 0
4.09717 0 0
4.09717 0 0
4.19336 0 0
4.19336 0 0
4.28955 0 0
4.28955 0 0
4.38574 0 0
4.38574 0 0
4.48193 0 0
4.48193 0 0
4.57812 0 0
4.57812 0 0
4.67432 0 0
4.67432 0 0
4.77051 0 0
4.77051 0 0
4.8667 0 0
4.8667 0 0
4.96289 0 0
4.96289 0 0
5.05908 0 0
5.05908 0 0
5.15527 0 0
5.15527 0 0
5.25146 0 0
5.25146 0 0
5.34766 0 0
5.34766 0 0
5.44385 0 0
5.44385 0 0
5.54004 0 0
5.54004 0 0
5.63623 0 0
5.63623 0 0
5.73242 0 0
5.73242 0 0
5.82861 0 0
5.82861 0 0
5.9248 0 0
5.9248 0 0
6.021 0 0
6.021 0 0
6.11719 0 0
6.11719 0 0
6.21338 0 0
6.21338 0 0
6.30957 0 0
6.30957 0 0
6.40576 0 0
6.40576 0 0
6.50195 0 0
6.50195 0 0
6.59814 0 0
6.59814 0 0
6.69434 0 0
6.69434 0 0
6.79053 0 0
6.79053 0 0
6.88672 0 0
6.88672 0 0
6.98291 0 0
6.98291 0 0
7.0791 0 0
7.0791 0 0
7.17529 0 0
7.17529 0 0
7.27148 0 0
7.27148 0 0
7.36768 0 0
7.36768 0 0
7.46387 0 0
7.46387 0 0
7.56006 0 0
7.56006 0 0
7.65625 0 0
7.65625 0 0
7.75244 0 0
7.75244 0 0
7.84863 0 0
7.84863 0 0
7.94482 0 0
7.94482 0 0
8.04102 0 0
8.04102 0 0
8.13721 0 0
8.13721 0 0
8.2334 0 0
8.2334 0 0
8.32959 0 0
8.32959 0 0
8.42578 0 0
8.42578 0 0
8.52197 0 0
8.52197 0 0
8.61816 0 0
8.61816 0 0
8.71436 0 0
8.71436 0 0
8.81055 0 0
8.81055 0 0
8.90674 0 0
8.90674 0 0
9.00293 0 0
9.00293 0 0
9.09912 0 0
9.09912 0 0
9.19531 0 0
9.19531 0 0
9.2915 0 0
9.2915 0 0
9.3877 0 0
9.3877 0 0
9.48389 0 0
9.48389 0 0
9.58008 0 0
9.58008 0 0
9.67627 0 0
9.67627 0 0
9.77246 0 0
9.77246 0 0
9.86865 0 0
9.86865 0 0
9.96484 0 0
9.96484 0 0
10.061 0 0
10.061 0 0
10.1572 0 0
10.1572 0 0
10.2534 0 0
10.2534 0 0
10.3496 0 0
10.3496 0 0
10.4458 0 0
10.4458 0 0
10.542 0 0
10.542 0 0
10.6382 0 0
10.6382 0 0
10.7344 0 0
10.7344 0 0
10.8306 0 0
10.8306 0 0
10.9268 0 0
10.9268 0 0
11.0229 0 0
11.0229 0 0
11.1191 0 0
11.1191 0 0
11.2153 0 0
11.2153 0 0
11.3115 0 0
11.3115 0 0
11.4077 0 0
11.4077 0 0
11.5039 0 0
11.5039 0 0
11.6001 0 0
11.6001 0 0
11.6963 0 0
11.6963 0 0
11.7925 0 0
11.7925 0 0
11.8887 0 0
11.8887 0 0
11.9849 0 0
11.9849 0 0
12.0811 0 0
12.0811 0 0
12.1772 0 0
12.1772 0 0
12.2734 0 0
12.2734 0 0
12.3696 0 0
12.3696 0 0
12.4658 0 0
12.4658 0 0
12.562 0 0
12.562 0 0
12.6582 0 0
12.6582 0 0
12.7544 0 0
12.7544 0 0
12.8506 0 0
12.8506 0 0
12.9468 0 0
12.9468 0 0
13.043 0 0
13.043 0 0
13.1392 0 0
13.1392 0 0
13.2354 0 0
13.2354 0 0
13.3315 0 0
13.3315 0 0
13.4277 0 0
13.4277 0 0
13.5239 0 0
13.5239 0 0
13.6201 0 0
13.6201 0 0
13.7163 0 0
13.7163 0 0
13.8125 0 0
13.8125 0 0
13.9087 0 0
13.9087 0 0
14.0049 0 0
14.0049 0 0
14.1011 0 0
14.1011 0 0
14.1973 0 0
14.1973 0 0
14.2935 0 0
14.2935 0 0
14.3896 0 0
14.3896 0 0
14.4858 0 0
14.4858 0 0
14.582 0 0
14.582 0 0
14.6782 0 0
14.6782 0 0
14.7744 0 0
14.7744 0 0
14.8706 0 0
14.8706 0 0
14.9668 0 0
14.9668 0 0
15.063 0 0
15.063 0 0
15.1592 0 0
15.1592 0 0
15.2554 0 0
15.2554 0 0
15.3516 0 0
15.3516 0 0
15.4478 0 0
15.4478 0 0
15.5439 0 0
15.5439 0 0
15.6401 0 0
15.6401 0 0
15.7363 0 0
15.7363 0 0
15.8325 0 0
15.8325 0 0
15.9287 0 0
15.9287 0 0
16.0249 0 0
16.0249 0 0
16.1211 0 0
16.1211 0 0
16.2173 0 0
16.2173 0 0
16.3135 0 0
16.3135 0 0
16.4097 0 0
16.4097 0 0
16.5059 0 0
16.5059 0 0
16.6021 0 0
16.6021 0 0
16.6982 0 0
16.6982 0 0
16.7944 0 0
16.7944 0 0
16.8906 0 0
16.8906 0 0
16.9868 0 0
16.9868 0 0
17.083 0 0
17.083 0 0
17.1792 0 0
17.1792 0 0
17.2754 0 0
17.2754 0 0
17.3716 0 0
17.3716 0 0
17.4678 0 0
17.4678 0 0
17.564 0 0
17.564 0 0
17.6602 0 0
17.6602 0 0
17.7563 0 0
17.7563 0 0
17.8525 0 0
17.8525 0 0
17.9487 0 0
17.9487 0 0
18.0449 0 0
18.0449 0 0
18.1411 0 0
18.1411 0 0
18.2373 0 0
18.2373 0 0
18.3335 0 0
18.3335 0 0
18.4297 0 0
18.4297 0 0
18.5259 0 0
18.5259 0 0
18.6221 0 0
18.6221 0 0
18.7183 0 0
18.7183 0 0
18.8145 0 0
18.8145 0 0
18.9106 0 0
18.9106 0 0
19.0068 0 0
19.0068 0 0
19.103 0 0
19.103 0 0
19.1992 0 0
19.1992 0 0
19.2954 0 0
19.2954 0 0
19.3916 0 0
19.3916 0 0
19.4878 0 0
19.4878 0 0
19.584 0 0
19.584 0 0
19.6802 0 0
19.6802 0 0
19.7764 0 0
19.7764 0 0
19.8726 0 0
19.8726 0 0
19.9688 0 0
19.9688 0 0
20.0649 0 0
20.0649 0 0
20.1611 0 0
20.1611 0 0
20.2573 0 0
20.2573 0 0
20.3535 0 0
20.3535 0 0
20.4497 0 0
20.4497 0 0
20.5459 0 0
20.5459 0 0
20.6421 0 0
20.6421 0 0
20.7383 0 0
20.7383 0 0
20.8345 0 0
20.8345 0 0
20.9307 0 0
20.9307 0 0
21.0269 0 0
21.0269 0 0
21.123 0 0
21.123 0 0
21.2192 0 0
21.2192 0 0
21.3154 0 0
21.3154 0 0
21.4116 0 0
21.4116 0 0
21.5078 0 0
21.5078 0 0
21.604 0 0
21.604 0 0
21.7002 0 0
21.7002 0 0
21.7964 0 0
21.7964 0 0
21.8926 0 0
21.8926 0 0
21.9888 0 0
21.9888 0 0
22.085 0 0
22.085 0 0
22.1812 0 0
22.1812 0 0
22.2773 0 0
22.2773 0 0
22.3735 0 0
22.3735 0 0
22.4697 0 0
22.4697 0 0
22.5659 0 0
22.5659 0 0
22.6621 0 0
22.6621 0 0
22.7583 0 0
22.7583 0 0
22.8545 0 0
22.8545 0 0
22.9507 0 0
22.9507 0 0
23.0469 0 0
23.0469 0 0
23.1431 0 0
23.1431 0 0
23.2393 0 0
23.2393 0 0
23.3354 0 0
23.3354 0 0
23.4316 0 0
23.4316 0 0
23.5278 0 0
23.5278 0 0
23.624 0 0
23.624 0 0
23.7202 0 0
23.7202 0 0
23.8164 0 0
23.8164 0 0
23.9126 0 0
23.9126 0 0
24.0088 0 0
24.0088 0 0
24.105 0 0
24.105 0 0
24.2012 0 0
24.2012 0 0
24.2974 0 0
24.2974 0 0
24.3936 0 0
24.3936 0 0
24.4897 0 0
24.4897 0 0
24.5859 0 0
24.5859 0 0
24.6821 0 0
24.6821 0 0
24.7783 0 0
24.7783 0 0
24.8745 0 0
24.8745 0 0
24.9707 0 0
24.9707 0 0
25.0669 0 0
25.0669 0 0
25.1631 0 0
25.1631 0 0
25.2593 0 0
25.2593 0 0
25.3555 0 0
25.3555 0 0
25.4517 0 0
25.4517 0 0
25.5479 0 0
25.5479 0 0
25.644 0 0
25.644 0 0
25.7402 0 0
25.7402 0 0
25.8364 0 0
25.8364 0 0
25.9326 0 0
25.9326 0 0
26.0288 0 0
26.0288 0 0
26.125 0 0
26.125 0 0
26.2212 0 0
26.2212 0 0
26.3174 0 0
26.3174 0 0
26.4136 0 0
26.4136 0 0
26.5098 0 0
26.5098 0 0
26.606 0 0
26.606 0 0
26.7021 0 0
26.7021 0 0
26.7983 0 0
26.7983 0 0
26.8945 0 0
26.8945 0 0
26.9907 0 0
26.9907 0 0
27.0869 0 0
27.0869 0 0
27.1831 0 0
27.1831 0 0
27.2793 0 0
27.2793 0 0
27.3755 0 0
27.3755 0 0
27.4717 0 0
27.4717 0 0
27.5679 0 0
27.5679 0 0
27.6641 0 0
27.6641 0 0
27.7603 0 0
27.7603 0 0
27.8564 0 0
27.8564 0 0
27.9526 0 0
27.9526 0 0
28.0488 0 0
28.0488 0 0
28.145 0 0
28.145 0 0
28.2412 0 0
28.2412 0 0
28.3374 0 0
28.3374 0 0
28.4336 0 0
28.4336 0 0
28.5298 0 0
28.5298 0 0
28.626 0 0
28.626 0 0
28.7222 0 0
28.7222 0 0
28.8184 0 0
28.8184 0 0
28.9146 0 0
28.9146 0 0
29.0107 0 0
29.0107 0 0
29.1069 0 0
29.1069 0 0
29.2031 0 0
29.2031 0 0
29.2993 0 0
29.2993 0 0
29.3955 0 0
29.3955 0 0
29.4917 0 0
29.4917 0 0
29.5879 0 0
29.5879 0 0
29.6841 0 0
29.6841 0 0
29.7803 0 0
29.7803 0 0
29.8765 0 0
29.8765 0 0
29.9727 0 0
29.9727 0 0
30.0688 0 0
30.0688 0 0
30.165 0 0
30.165 0 0
30.2612 0 0
30.2612 0 0
30.3574 0 0
30.3574 0 0
30.4536 0 0
30.4536 0 0
30.5498 0 0
30.5498 0 0
30.646 0 0
30.646 0 0
30.7422 0 0
30.7422 0 0
30.8384 0 0
30.8384 0 0
30.9346 0 0
30.9346 0 0
31.0308 0 0
31.0308 0 0
31.127 0 0
31.127 0 0
31.2231 0 0
31.2231 0 0
31.3193 0 0
31.3193 0 0
31.4155 0 0
31.4155 0 0
31.5117 0 0
31.5117 0 0
31.6079 0 0
31.6079 0 0
31.7041 0 0
31.7041 0 0
31.8003 0 0
31.8003 0 0
31.8965 0 0
31.8965 0 0
31.9927 0 0
31.9927 0 0
32.0889 0 0
32.0889 0 0
32.1851 0 0
32.1851 0 0
32.2812 0 0
32.2812 0 0
32.3774 0 0
32.3774 0 0
32.4736 0 0
32.4736 0 0
32.5698 0 0
32.5698 0 0
32.666 0 0
32.666 0 0
32.7622 0 0
32.7622 0 0
32.8584 0 0
32.8584 0 0
32.9546 0 0
32.9546 0 0
33.0508 0 0
33.0508 0 0
33.147 0 0
33.147 0 0
33.2432 0 0
33.2432 0 0
33.3394 0 0
33.3394 0 0
33.4355 0 0
33.4355 0 0
33.5317 0 0
33.5317 0 0
33.6279 0 0
33.6279 0 0
33.7241 0 0
33.7241 0 0
33.8203 0 0
33.8203 0 0
33.9165 0 0
33.9165 0 0
34.0127 0 0
34.0127 0 0
34.1089 0 0
34.1089 0 0
34.2051 0 0
34.2051 0 0
34.3013 0 0
34.3013 0 0
34.3975 0 0
34.3975 0 0
34.4937 0 0
34.4937 0 0
34.5898 0 0
34.5898 0 0
34.686 0 0
34.686 0 0
34.7822 0 0
34.7822 0 0
34.8784 0 0
34.8784 0 0
34.9746 0 0
34.9746 0 0
35.0708 0 0
35.0708 0 0
35.167 0 0
35.167 0 0
35.2632 0 0
35.2632 0 0
35.3594 0 0
35.3594 0 0
35.4556 0 0
35.4556 0 0
35.5518 0 0
35.5518 0 0
35.6479 0 0
35.6479 0 0
35.7441 0 0
35.7441 0 0
35.8403 0 0
35.8403 0 0
35.9365 0 0
35.9365 0 0
36.0327 0 0
36.0327 0 0
36.1289 0 0
36.1289 0 0
36.2251 0 0
36.2251 0 0
36.3213 0 0
36.3213 0 0
36.4175 0 0
36.4175 0 0
36.5137 0 0
36.5137 0 0
36.6099 0 0
36.6099 0 0
36.7061 0 0
36.7061 0 0
36.8022 0 0
36.8022 0 0
36.8984 0 0
36.8984 0 0
36.9946 0 0
36.9946 0 0
37.0908 0 0
37.0908 0 0
37.187 0 0
37.187 0 0
37.2832 0 0
37.2832 0 0
37.3794 0 0
37.3794 0 0
37.4756 0 0
37.4756 0 0
37.5718 0 0
37.5718 0 0
37.668 0 0
37.668 0 0
37.7642 0 0
37.7642 0 0
37.8604 0 0
37.8604 0 0
37.9565 0 0
37.9565 0 0
38.0527 0 0
38.0527 0 0
38.1489 0 0
38.1489 0 0
38.2451 0 0
38.2451 0 0
38.3413 0 0
38.3413 0 0
38.4375 0 0
38.4375 0 0
38.5337 0 0
38.5337 0 0
38.6299 0 0
38.6299 0 0
38.7261 0 0
38.7261 0 0
38.8223 0 0
38.8223 0 0
38.9185 0 0
38.9185 0 0
39.0146 0 0
39.0146 0 0
39.1108 0 0
39.1108 0 0
39.207 0 0
39.207 0 0
39.3032 0 0
39.3032 0 0
39.3994 0 0
39.3994 0 0
39.4956 0 0
39.4956 0 0
39.5918 0 0
39.5918 0 0
39.688 0 0
39.688 0 0
39.7842 0 0
39.7842 0 0
39.8804 0 0
39.8804 0 0
39.9766 0 0
39.9766 0 0
40.0728 0 0
40.0728 0 0
40.1689 0 0
40.1689 0 0
40.2651 0 0
40.2651 0 0
40.3613 0 0
40.3613 0 0
40.4575 0 0
40.4575 0 0
40.5537 0 0
40.5537 0 0
40.6499 0 0
40.6499 0 0
40.7461 0 0
40.7461 0 0
40.8423 0 0
40.8423 0 0
40.9385 0 0
40.9385 0 0
41.0347 0 0
41.0347 0 0
41.1309 0 0
41.1309 0 0
41.2271 0 0
41.2271 0 0
[...]
POINT_DATA 2048
SCALARS solution_0 double 1
LOOKUP_TABLE default
0.0223164 0.0219896 0.0219896 0.0216805 0.0216805 0.0213886 0.0213886 0.0211129 0.0211129 0.0208528 0.0208528 0.0206074 0.0206074 0.0203759 0.0203759 0.0201576 0.0201576 0.0199518 0.0199518 0.0197579 0.0197579 0.0195752 0.0195752 0.0194031 0.0194031 0.0192412 0.0192412 0.0190888 0.0190888 0.0189455 0.0189455 0.0188108 0.0188108 0.0186842 0.0186842 0.0185654 0.0185654 0.0184538 0.0184538 0.0183491 0.0183491 0.018251 0.018251 0.0181589 0.0181589 0.0180727 0.0180727 0.0179919 0.0179919 0.0179162 0.0179162 0.0178454 0.0178454 0.017779 0.017779 0.0177168 0.0177168 0.0176585 0.0176585 0.0176038 0.0176038 0.0175525 0.0175525 0.0175043 0.0175043 0.017459 0.017459 0.0174163 0.0174163 0.017376 0.017376 0.0173379 0.0173379 0.0173017 0.0173017 0.0172674 0.0172674 0.0172347 0.0172347 0.0172033 0.0172033 0.0171732 0.0171732 0.0171442 0.0171442 0.0171161 0.0171161 0.0170888 0.0170888 0.0170621 0.0170621 0.017036 0.017036 0.0170102 0.0170102 0.0169847 0.0169847 0.0169594 0.0169594 0.0169342 0.0169342 0.016909 0.016909 0.0168836 0.0168836 0.0168581 0.0168581 0.0168324 0.0168324 0.0168064 0.0168064 0.01678 0.01678 0.0167532 0.0167532 0.0167259 0.0167259 0.0166982 0.0166982 0.0166699 0.0166699 0.0166411 0.0166411 0.0166117 0.0166117 0.0165818 0.0165818 0.0165512 0.0165512 0.01652 0.01652 0.0164883 0.0164883 0.0164559 0.0164559 0.0164229 0.0164229 0.0163894 0.0163894 0.0163552 0.0163552 0.0163205 0.0163205 0.0162852 0.0162852 0.0162493 0.0162493 0.016213 0.016213 0.0161762 0.0161762 0.0161389 0.0161389 0.0161011 0.0161011 0.016063 0.016063 0.0160244 0.0160244 0.0159855 0.0159855 0.0159463 0.0159463 0.0159068 0.0159068 0.015867 0.015867 0.015827 0.015827 0.0157869 0.0157869 0.0157465 0.0157465 0.0157061 0.0157061 0.0156655 0.0156655 0.0156249 0.0156249 0.0155843 0.0155843 0.0155437 0.0155437 0.0155031 0.0155031 0.0154626 0.0154626 0.0154222 0.0154222 0.015382 0.015382 0.0153419 0.0153419 0.0153021 0.0153021 0.0152624 0.0152624 0.015223 0.015223 0.0151839 0.0151839 0.0151451 0.0151451 0.0151066 0.0151066 0.0150685 0.0150685 0.0150307 0.0150307 0.0149934 0.0149934 0.0149564 0.0149564 0.0149199 0.0149199 0.0148839 0.0148839 0.0148483 0.0148483 0.0148132 0.0148132 0.0147786 0.0147786 0.0147446 0.0147446 0.014711 0.014711 0.0146781 0.0146781 0.0146456 0.0146456 0.0146138 0.0146138 0.0145825 0.0145825 0.0145517 0.0145517 0.0145216 0.0145216 0.0144921 0.0144921 0.0144631 0.0144631 0.0144348 0.0144348 0.0144071 0.0144071 0.01438 0.01438 0.0143535 0.0143535 0.0143277 0.0143277 0.0143024 0.0143024 0.0142778 0.0142778 0.0142538 0.0142538 0.0142304 0.0142304 0.0142077 0.0142077 0.0141855 0.0141855 0.014164 0.014164 0.0141431 0.0141431 0.0141228 0.0141228 0.0141031 0.0141031 0.0140841 0.0140841 0.0140656 0.0140656 0.0140477 0.0140477 0.0140304 0.0140304 0.0140137 0.0140137 0.0139976 0.0139976 0.0139821 0.0139821 0.0139671 0.0139671 0.0139527 0.0139527 0.0139388 0.0139388 0.0139255 0.0139255 0.0139128 0.0139128 0.0139006 0.0139006 0.0138889 0.0138889 0.0138777 0.0138777 0.0138671 0.0138671 0.013857 0.013857 0.0138473 0.0138473 0.0138382 0.0138382 0.0138296 0.0138296 0.0138214 0.0138214 0.0138137 0.0138137 0.0138064 0.0138064 0.0137996 0.0137996 0.0137932 0.0137932 0.0137873 0.0137873 0.0137818 0.0137818 0.0137767 0.0137767 0.013772 0.013772 0.0137677 0.0137677 0.0137638 0.0137638 0.0137603 0.0137603 0.0137571 0.0137571 0.0137542 0.0137542 0.0137517 0.0137517 0.0137496 0.0137496 0.0137477 0.0137477 0.0137462 0.0137462 0.013745 0.013745 0.013744 0.013744 0.0137433 0.0137433 0.0137429 0.0137429 0.0137427 0.0137427 0.0137427 0.0137427 0.013743 0.013743 0.0137434 0.0137434 0.0137441 0.0137441 0.0137449 0.0137449 0.0137459 0.0137459 0.013747 0.013747 0.0137483 0.0137483 0.0137496 0.0137496 0.0137511 0.0137511 0.0137527 0.0137527 0.0137543 0.0137543 0.0137559 0.0137559 0.0137576 0.0137576 0.0137593 0.0137593 0.013761 0.013761 0.0137627 0.0137627 0.0137643 0.0137643 0.0137659 0.0137659 0.0137673 0.0137673 0.0137687 0.0137687 0.0137699 0.0137699 0.013771 0.013771 0.013772 0.013772 0.0137727 0.0137727 0.0137732 0.0137732 0.0137735 0.0137735 0.0137735 0.0137735 0.0137733 0.0137733 0.0137727 0.0137727 0.0137718 0.0137718 0.0137705 0.0137705 0.0137689 0.0137689 0.0137669 0.0137669 0.0137644 0.0137644 0.0137615 0.0137615 0.0137581 0.0137581 0.0137542 0.0137542 0.0137498 0.0137498 0.0137448 0.0137448 0.0137393 0.0137393 0.0137331 0.0137331 0.0137264 0.0137264 0.0137189 0.0137189 0.0137108 0.0137108 0.0137021 0.0137021 0.0136926 0.0136926 0.0136823 0.0136823 0.0136713 0.0136713 0.0136596 0.0136596 0.013647 0.013647 0.0136336 0.0136336 0.0136194 0.0136194 0.0136044 0.0136044 0.0135884 0.0135884 0.0135717 0.0135717 0.013554 0.013554 0.0135355 0.0135355 0.0135161 0.0135161 0.0134958 0.0134958 0.0134746 0.0134746 0.0134525 0.0134525 0.0134295 0.0134295 0.0134057 0.0134057 0.013381 0.013381 0.0133555 0.0133555 0.0133292 0.0133292 0.013302 0.013302 0.0132741 0.0132741 0.0132455 0.0132455 0.0132163 0.0132163 0.0131863 0.0131863 0.0131559 0.0131559 0.0131248 0.0131248 0.0130934 0.0130934 0.0130615 0.0130615 0.0130294 0.0130294 0.012997 0.012997 0.0129646 0.0129646 0.0129321 0.0129321 0.0128998 0.0128998 0.0128676 0.0128676 0.0128359 0.0128359 0.0128047 0.0128047 0.0127741 0.0127741 0.0127444 0.0127444 0.0127157 0.0127157 0.0126883 0.0126883 0.0126623 0.0126623 0.0126379 0.0126379 0.0126154 0.0126154 0.012595 0.012595 0.012577 0.012577 0.0125617 0.0125617 0.0125494 0.0125494 0.0125404 0.0125404 0.012535 0.012535 0.0125336 0.0125336 0.0125366 0.0125366 0.0125443 0.0125443 0.0125571 0.0125571 0.0125755 0.0125755 0.0126 0.0126 0.012631 0.012631 0.012669 0.012669 0.0127145 0.0127145 0.0127681 0.0127681 0.0128304 0.0128304 0.0129019 0.0129019 0.0129833 0.0129833 0.0130752 0.0130752 0.0131783 0.0131783 0.0132934 0.0132934 0.013421 0.013421 0.013562 0.013562 0.0137172 0.0137172 0.0138874 0.0138874 0.0140735 0.0140735 0.0142762 0.0142762 0.0144966 0.0144966 0.0147356 0.0147356 0.0149941 0.0149941 0.0152732 0.0152732 0.0155738 0.0155738 0.0158971 0.0158971 0.0162442 0.0162442 0.0166161 0.0166161 0.0170141 0.0170141 0.0174393 0.0174393 0.017893 0.017893 0.0183764 0.0183764 0.0188909 0.0188909 0.0194377 0.0194377 0.0200182 0.0200182 0.0206339 0.0206339 0.021286 0.021286 0.0219762 0.0219762 0.0227058 0.0227058 0.0234763 0.0234763 0.0242894 0.0242894 0.0251465 0.0251465 0.0260493 0.0260493 0.0269993 0.0269993 0.0279983 0.0279983 0.0290478 0.0290478 0.0301496 0.0301496 0.0313054 0.0313054 0.0325169 0.0325169 0.0337859 0.0337859 0.035114 0.035114 0.0365032 0.0365032 0.0379551 0.0379551 0.0394716 0.0394716 0.0410545 0.0410545 0.0427055 0.0427055 0.0444266 0.0444266 0.0462195 0.0462195 0.048086 0.048086 0.050028 0.050028 0.0520472 0.0520472 0.0541455 0.0541455 0.0563247 0.0563247 0.0585864 0.0585864 0.0609326 0.0609326 0.0633648 0.0633648 0.0658848 0.0658848 0.0684943 0.0684943 0.0711948 0.0711948 0.0739882 0.0739882 0.0768758 0.0768758 0.0798592 0.0798592 0.08294 0.08294 0.0861194 0.0861194 0.089399 0.089399 0.0927799 0.0927799 0.0962635 0.0962635 0.099851 0.099851 0.103543 0.103543 0.107342 0.107342 0.111247 0.111247 0.11526 0.11526 0.119382 0.119382 0.123613 0.123613 0.127954 0.127954 0.132405 0.132405 0.136966 0.136966 0.141639 0.141639 0.146423 0.146423 0.151318 0.151318 0.156324 0.156324 0.161441 0.161441 0.166668 0.166668 0.172005 0.172005 0.177451 0.177451 0.183006 0.183006 0.188669 0.188669 0.194437 0.194437 0.200311 0.200311 0.206289 0.206289 0.212369 0.212369 0.218549 0.218549 0.224828 0.224828 0.231203 0.231203 0.237672 0.237672 0.244233 0.244233 0.250882 0.250882 0.257618 0.257618 0.264437 0.264437 0.271336 0.271336 0.278311 0.278311 0.285359 0.285359 0.292476 0.292476 0.299659 0.299659 0.306902 0.306902 0.314202 0.314202 0.321554 0.321554 0.328953 0.328953 0.336394 0.336394 0.343872 0.343872 0.351382 0.351382 0.358919 0.358919 0.366475 0.366475 0.374047 0.374047 0.381626 0.381626 0.389208 0.389208 0.396786 0.396786 0.404353 0.404353 0.411902 0.411902 0.419427 0.419427 0.426919 0.426919 0.434373 0.434373 0.44178 0.44178 0.449133 0.449133 0.456424 0.456424 0.463646 0.463646 0.47079 0.47079 0.477849 0.477849 0.484813 0.484813 0.491676 0.491676 0.498428 0.498428 0.50506 0.50506 0.511566 0.511566 0.517935 0.517935 0.524159 0.524159 0.53023 0.53023 0.536139 0.536139 0.541877 0.541877 0.547434 0.547434 0.552804 0.552804 0.557975 0.557975 0.562941 0.562941 0.567692 0.567692 0.572219 0.572219 0.576514 0.576514 0.580569 0.580569 0.584374 0.584374 0.587921 0.587921 0.591203 0.591203 0.59421 0.59421 0.596936 0.596936 0.599371 0.599371 0.601509 0.601509 0.603341 0.603341 0.60486 0.60486 0.60606 0.60606 0.606932 0.606932 0.607471 0.607471 0.607669 0.607669 0.60752 0.60752 0.607019 0.607019 0.606159 0.606159 0.604935 0.604935 0.603342 0.603342 0.601375 0.601375 0.599028 0.599028 0.596298 0.596298 0.593181 0.593181 0.589673 0.589673 0.585771 0.585771 0.581472 0.581472 0.576772 0.576772 0.571671 0.571671 0.566166 0.566166 0.560255 0.560255 0.553939 0.553939 0.547215 0.547215 0.540084 0.540084 0.532545 0.532545 0.524601 0.524601 0.51625 0.51625 0.507496 0.507496 0.498339 0.498339 0.488782 0.488782 0.478827 0.478827 0.468479 0.468479 0.45774 0.45774 0.446614 0.446614 0.435106 0.435106 0.42322 0.42322 0.410962 0.410962 0.398338 0.398338 0.385353 0.385353 0.372014 0.372014 0.358329 0.358329 0.344304 0.344304 0.329947 0.329947 0.315266 0.315266 0.30027 0.30027 0.284968 0.284968 0.269368 0.269368 0.253481 0.253481 0.237317 0.237317 0.220885 0.220885 0.204197 0.204197 0.187264 0.187264 0.170095 0.170095 0.152705 0.152705 0.135103 0.135103 0.117302 0.117302 0.0993151 0.0993151 0.0811541 0.0811541 0.0628321 0.0628321 0.044362 0.044362 0.0257571 0.0257571 0.00703079 0.00703079 -0.0118033 -0.0118033 -0.0307315 -0.0307315 -0.0497399 -0.0497399 -0.0688145 -0.0688145 -0.0879414 -0.0879414 -0.107106 -0.107106 -0.126295 -0.126295 -0.145493 -0.145493 -0.164687 -0.164687 -0.183861 -0.183861 -0.203002 -0.203002 -0.222096 -0.222096 -0.241127 -0.241127 -0.260082 -0.260082 -0.278948 -0.278948 -0.297709 -0.297709 -0.316351 -0.316351 -0.334862 -0.334862 -0.353227 -0.353227 -0.371433 -0.371433 -0.389467 -0.389467 -0.407315 -0.407315 -0.424964 -0.424964 -0.442402 -0.442402 -0.459617 -0.459617 -0.476595 -0.476595 -0.493325 -0.493325 -0.509796 -0.509796 -0.525995 -0.525995 -0.541912 -0.541912 -0.557537 -0.557537 -0.572857 -0.572857 -0.587864 -0.587864 -0.602547 -0.602547 -0.616898 -0.616898 -0.630906 -0.630906 -0.644563 -0.644563 -0.657862 -0.657862 -0.670793 -0.670793 -0.68335 -0.68335 -0.695525 -0.695525 -0.707312 -0.707312 -0.718703 -0.718703 -0.729695 -0.729695 -0.74028 -0.74028 -0.750454 -0.750454 -0.760212 -0.760212 -0.76955 -0.76955 -0.778464 -0.778464 -0.786952 -0.786952 -0.795009 -0.795009 -0.802634 -0.802634 -0.809825 -0.809825 -0.81658 -0.81658 -0.822898 -0.822898 -0.828778 -0.828778 -0.83422 -0.83422 -0.839224 -0.839224 -0.84379 -0.84379 -0.84792 -0.84792 -0.851615 -0.851615 -0.854877 -0.854877 -0.857707 -0.857707 -0.860109 -0.860109 -0.862085 -0.862085 -0.863638 -0.863638 -0.864773 -0.864773 -0.865493 -0.865493 -0.865802 -0.865802 -0.865706 -0.865706 -0.865209 -0.865209 -0.864316 -0.864316 -0.863034 -0.863034 -0.861367 -0.861367 -0.859323 -0.859323 -0.856908 -0.856908 -0.854128 -0.854128 -0.850991 -0.850991 -0.847504 -0.847504 -0.843674 -0.843674 -0.839508 -0.839508 -0.835016 -0.835016 -0.830204 -0.830204 -0.825082 -0.825082 -0.819657 -0.819657 -0.813938 -0.813938 -0.807933 -0.807933 -0.801653 -0.801653 -0.795105 -0.795105 -0.788298 -0.788298 -0.781242 -0.781242 -0.773946 -0.773946 -0.766419 -0.766419 -0.75867 -0.75867 -0.75071 -0.75071 -0.742546 -0.742546 -0.73419 -0.73419 -0.725649 -0.725649 -0.716934 -0.716934 -0.708054 -0.708054 -0.699019 -0.699019 -0.689837 -0.689837 -0.680518 -0.680518 -0.671071 -0.671071 -0.661506 -0.661506 -0.651831 -0.651831 -0.642056 -0.642056 -0.63219 -0.63219 -0.62224 -0.62224 -0.612217 -0.612217 -0.602129 -0.602129 -0.591984 -0.591984 -0.58179 -0.58179 -0.571557 -0.571557 -0.561291 -0.561291 -0.551 -0.551 -0.540694 -0.540694 -0.530378 -0.530378 -0.520062 -0.520062 -0.509751 -0.509751 -0.499453 -0.499453 -0.489174 -0.489174 -0.478923 -0.478923 -0.468705 -0.468705 -0.458526 -0.458526 -0.448393 -0.448393 -0.438311 -0.438311 -0.428287 -0.428287 -0.418326 -0.418326 -0.408433 -0.408433 -0.398614 -0.398614 -0.388874 -0.388874 -0.379216 -0.379216 -0.369647 -0.369647 -0.360169 -0.360169 -0.350788 -0.350788 -0.341508 -0.341508 -0.332331 -0.332331 -0.323262 -0.323262 -0.314304 -0.314304 -0.305461 -0.305461 -0.296734 -0.296734 -0.288127 -0.288127 -0.279643 -0.279643 -0.271284 -0.271284 -0.263052 -0.263052 -0.254949 -0.254949 -0.246977 -0.246977 -0.239137 -0.239137 -0.231432 -0.231432 -0.223863 -0.223863 -0.21643 -0.21643 -0.209134 -0.209134 -0.201978 -0.201978 -0.19496 -0.19496 -0.188083 -0.188083 -0.181345 -0.181345 -0.174748 -0.174748 -0.168292 -0.168292 -0.161976 -0.161976 -0.1558 -0.1558 -0.149764 -0.149764 -0.143869 -0.143869 -0.138112 -0.138112 -0.132494 -0.132494 -0.127014 -0.127014 -0.12167 -0.12167 -0.116463 -0.116463 -0.111391 -0.111391 -0.106453 -0.106453 -0.101647 -0.101647 -0.0969732 -0.0969732 -0.0924291 -0.0924291 -0.0880137 -0.0880137 -0.0837253 -0.0837253 -0.0795626 -0.0795626 -0.0755237 -0.0755237 -0.071607 -0.071607 -0.0678109 -0.0678109 -0.0641334 -0.0641334 -0.0605727 -0.0605727 -0.0571271 -0.0571271 -0.0537945 -0.0537945 -0.050573 -0.050573 -0.0474607 -0.0474607 -0.0444555 -0.0444555 -0.0415554 -0.0415554 -0.0387584 -0.0387584 -0.0360624 -0.0360624 -0.0334652 -0.0334652 -0.0309649 -0.0309649 -0.0285593 -0.0285593 -0.0262463 -0.0262463 -0.0240238 -0.0240238 -0.0218897 -0.0218897 -0.0198418 -0.0198418 -0.0178782 -0.0178782 -0.0159966 -0.0159966 -0.014195 -0.014195 -0.0124713 -0.0124713 -0.0108234 -0.0108234 -0.00924931 -0.00924931 -0.00774698 -0.00774698 -0.00631437 -0.00631437 -0.00494949 -0.00494949 -0.00365037 -0.00365037 -0.00241504 -0.00241504 -0.00124158 -0.00124158 -0.000128076 -0.000128076 0.00092735 0.00092735 0.00192655 0.00192655 0.00287136 0.00287136 0.00376356 0.00376356 0.00460494 0.00460494 0.00539721 0.00539721 0.00614209 0.00614209 0.00684126 0.00684126 0.00749634 0.00749634 0.00810896 0.00810896 0.00868069 0.00868069 0.00921306 0.00921306 0.00970759 0.00970759 0.0101658 0.0101658 0.010589 0.010589 0.0109787 0.0109787 0.0113362 0.0113362 0.011663 0.011663 0.0119602 0.0119602 0.0122292 0.0122292 0.0124711 0.0124711 0.0126873 0.0126873 0.0128788 0.0128788 0.0130468 0.0130468 0.0131924 0.0131924 0.0133166 0.0133166 0.0134205 0.0134205 0.0135052 0.0135052 0.0135715 0.0135715 0.0136203 0.0136203 0.0136527 0.0136527 0.0136695 0.0136695 0.0136716 0.0136716 0.0136597 0.0136597 0.0136346 0.0136346 0.0135971 0.0135971 0.013548 0.013548 0.0134879 0.0134879 0.0134176 0.0134176 0.0133376 0.0133376 0.0132487 0.0132487 0.0131513 0.0131513 0.0130462 0.0130462 0.0129338 0.0129338 0.0128147 0.0128147 0.0126893 0.0126893 0.0125583 0.0125583 0.0124219 0.0124219 0.0122808 0.0122808 0.0121352 0.0121352 0.0119857 0.0119857 0.0118325 0.0118325 0.0116762 0.0116762 0.0115169 0.0115169 0.0113551 0.0113551 0.011191 0.011191 0.011025 0.011025 0.0108573 0.0108573 0.0106883 0.0106883 0.0105181 0.0105181 0.010347 0.010347 0.0101752 0.0101752 0.010003 0.010003 0.00983054 0.00983054 0.00965798 0.00965798 0.00948553 0.00948553 0.00931336 0.00931336 0.0091416 0.0091416 0.00897042 0.00897042 0.00879993 0.00879993 0.00863028 0.00863028 0.00846157 0.00846157 0.00829392 0.00829392 0.00812741 0.00812741 0.00796215 0.00796215 0.00779821 0.00779821 0.00763568 0.00763568 0.00747463 0.00747463 0.0073151 0.0073151 0.00715718 0.00715718 0.0070009 0.0070009 0.00684631 0.00684631 0.00669346 0.00669346 0.00654238 0.00654238 0.0063931 0.0063931 0.00624564 0.00624564 0.00610004 0.00610004 0.00595631 0.00595631 0.00581446 0.00581446 0.00567451 0.00567451 0.00553647 0.00553647 0.00540033 0.00540033 0.00526612 0.00526612 0.00513381 0.00513381 0.00500341 0.00500341 0.00487492 0.00487492 0.00474833 0.00474833 0.00462363 0.00462363 0.00450081 0.00450081 0.00437986 0.00437986 0.00426076 0.00426076 0.0041435 0.0041435 0.00402806 0.00402806 0.00391443 0.00391443 0.00380257 0.00380257 0.00369249 0.00369249 0.00358414 0.00358414 0.00347752 0.00347752 0.0033726 0.0033726 0.00326935 0.00326935 0.00316776 0.00316776 0.0030678 0.0030678 0.00296945 0.00296945 0.00287267 0.00287267 0.00277746 0.00277746 0.00268377 0.00268377 0.00259159 0.00259159 0.00250089 0.00250089 0.00241165 0.00241165 0.00232384 0.00232384 0.00223744 0.00223744 0.00215241 0.00215241 0.00206874 0.00206874 0.0019864 0.0019864 0.00190537 0.00190537 0.00182562 0.00182562 0.00174713 0.00174713 0.00166987 0.00166987 0.00159382 0.00159382 0.00151895 0.00151895 0.00144525 0.00144525 0.00137269 0.00137269 0.00130125 0.00130125 0.0012309 0.0012309 0.00116162 0.00116162 0.0010934 0.0010934 0.00102621 0.00102621 0.000960028 0.000960028 0.000894836 0.000894836 0.000830614 0.000830614 0.000767342 0.000767342 0.000705001 0.000705001 0.000643572 0.000643572 0.000583036 0.000583036 0.000523376 0.000523376 0.000464573 0.000464573 0.000406611 0.000406611 0.000349472 0.000349472 0.00029314 0.00029314 0.000237598 0.000237598 0.000182831 0.000182831 0.000128822 0.000128822 7.55578e-05 7.55578e-05 2.30222e-05 2.30222e-05 -2.87988e-05 -2.87988e-05 -7.99196e-05 -7.99196e-05 -0.000130354 -0.000130354 -0.000180115 -0.000180115 -0.000229217 -0.000229217 -0.000277671 -0.000277671 -0.000325492 -0.000325492 -0.00037269 -0.00037269 -0.000419278 -0.000419278 -0.000465268 -0.000465268 -0.000510671 -0.000510671 -0.000555498 -0.000555498 -0.000599761 -0.000599761 -0.000643469 -0.000643469 -0.000686634 -0.000686634 -0.000729265 -0.000729265 -0.000771372 -0.000771372 -0.000812965 -0.000812965 -0.000854054 -0.000854054 -0.000894648 -0.000894648 -0.000934755 -0.000934755 -0.000974385 -0.000974385 -0.00101355 -0.00101355 -0.00105225 -0.00105225 -0.0010905 -0.0010905 -0.0011283 -0.0011283 -0.00116567 -0.00116567 -0.00120261 -0.00120261 -0.00123913 -0.00123913 -0.00127523 -0.00127523 -0.00131093 -0.00131093 -0.00134623 -0.00134623 -0.00138114 -0.00138114 -0.00141566 -0.00141566 -0.0014498 -0.0014498 -0.00148357 -0.00148357 -0.00151697 -0.00151697 -0.00155002 -0.00155002 -0.00158271 -0.00158271 -0.00161504 -0.00161504 -0.00164704 -0.00164704 -0.0016787 -0.0016787 -0.00171003 -0.00171003 -0.00174102 -0.00174102 -0.0017717 -0.0017717 -0.00180206 -0.00180206 -0.00183211 -0.00183211 -0.00186185 -0.00186185 -0.00189128 -0.00189128 -0.00192042 -0.00192042 -0.00194926 -0.00194926 -0.00197781 -0.00197781 -0.00200607 -0.00200607 -0.00203405 -0.00203405 -0.00206175 -0.00206175 -0.00208917 -0.00208917 -0.00211631 -0.00211631 -0.00214318 -0.00214318 -0.00216978 -0.00216978 -0.00219612 -0.00219612 -0.00222219 -0.00222219 -0.00224799 -0.00224799 -0.00227353 -0.00227353 -0.00229881 -0.00229881 -0.00232384 -0.00232384 -0.0023486 -0.0023486 -0.0023731 -0.0023731 -0.00239735 -0.00239735 -0.00242134 -0.00242134 -0.00244507 -0.00244507 -0.00246854 -0.00246854 -0.00249175 -0.00249175 -0.0025147 -0.0025147 -0.00253739 -0.00253739 -0.00255982 -0.00255982 -0.00258198 -0.00258198 -0.00260387 -0.00260387 -0.00262548 -0.00262548 -0.00264683 -0.00264683 -0.0026679 -0.0026679 -0.00268869 -0.00268869 -0.00270919 -0.00270919 -0.0027294 -0.0027294 -0.00274932 -0.00274932 -0.00276894 -0.00276894 -0.00278826 -0.00278826 -0.00280727 -0.00280727 -0.00282597 -0.00282597 -0.00284435 -0.00284435 -0.0028624 -0.0028624 -0.00288012 -0.00288012 -0.0028975 -0.0028975 -0.00291453 -0.00291453 -0.00293121 -0.00293121 -0.00294753 -0.00294753 -0.00296348 -0.00296348 -0.00297906 -0.00297906 -0.00299425 -0.00299425 -0.00300906 -0.00300906 -0.00302346 -0.00302346 -0.00303746 -0.00303746 -0.00305104 -0.00305104 -0.0030642 -0.0030642 -0.00307693 -0.00307693 -0.00308922 -0.00308922 -0.00310106 -0.00310106 -0.00311245 -0.00311245 -0.00312337 -0.00312337 -0.00313383 -0.00313383 -0.0031438 -0.0031438 -0.00315329 -0.00315329 -0.00316229 -0.00316229 -0.00317079 -0.00317079 -0.00317878 -