# vtk DataFile Version 3.0
#This file was generated by the deal.II library on 2020/9/1 at 14:41:17
ASCII
DATASET UNSTRUCTURED_GRID

POINTS 2048 double
1.5 0 0
1.59619 0 0
1.59619 0 0
1.69238 0 0
1.69238 0 0
1.78857 0 0
1.78857 0 0
1.88477 0 0
1.88477 0 0
1.98096 0 0
1.98096 0 0
2.07715 0 0
2.07715 0 0
2.17334 0 0
2.17334 0 0
2.26953 0 0
2.26953 0 0
2.36572 0 0
2.36572 0 0
2.46191 0 0
2.46191 0 0
2.55811 0 0
2.55811 0 0
2.6543 0 0
2.6543 0 0
2.75049 0 0
2.75049 0 0
2.84668 0 0
2.84668 0 0
2.94287 0 0
2.94287 0 0
3.03906 0 0
3.03906 0 0
3.13525 0 0
3.13525 0 0
3.23145 0 0
3.23145 0 0
3.32764 0 0
3.32764 0 0
3.42383 0 0
3.42383 0 0
3.52002 0 0
3.52002 0 0
3.61621 0 0
3.61621 0 0
3.7124 0 0
3.7124 0 0
3.80859 0 0
3.80859 0 0
3.90479 0 0
3.90479 0 0
4.00098 0 0
4.00098 0 0
4.09717 0 0
4.09717 0 0
4.19336 0 0
4.19336 0 0
4.28955 0 0
4.28955 0 0
4.38574 0 0
4.38574 0 0
4.48193 0 0
4.48193 0 0
4.57812 0 0
4.57812 0 0
4.67432 0 0
4.67432 0 0
4.77051 0 0
4.77051 0 0
4.8667 0 0
4.8667 0 0
4.96289 0 0
4.96289 0 0
5.05908 0 0
5.05908 0 0
5.15527 0 0
5.15527 0 0
5.25146 0 0
5.25146 0 0
5.34766 0 0
5.34766 0 0
5.44385 0 0
5.44385 0 0
5.54004 0 0
5.54004 0 0
5.63623 0 0
5.63623 0 0
5.73242 0 0
5.73242 0 0
5.82861 0 0
5.82861 0 0
5.9248 0 0
5.9248 0 0
6.021 0 0
6.021 0 0
6.11719 0 0
6.11719 0 0
6.21338 0 0
6.21338 0 0
6.30957 0 0
6.30957 0 0
6.40576 0 0
6.40576 0 0
6.50195 0 0
6.50195 0 0
6.59814 0 0
6.59814 0 0
6.69434 0 0
6.69434 0 0
6.79053 0 0
6.79053 0 0
6.88672 0 0
6.88672 0 0
6.98291 0 0
6.98291 0 0
7.0791 0 0
7.0791 0 0
7.17529 0 0
7.17529 0 0
7.27148 0 0
7.27148 0 0
7.36768 0 0
7.36768 0 0
7.46387 0 0
7.46387 0 0
7.56006 0 0
7.56006 0 0
7.65625 0 0
7.65625 0 0
7.75244 0 0
7.75244 0 0
7.84863 0 0
7.84863 0 0
7.94482 0 0
7.94482 0 0
8.04102 0 0
8.04102 0 0
8.13721 0 0
8.13721 0 0
8.2334 0 0
8.2334 0 0
8.32959 0 0
8.32959 0 0
8.42578 0 0
8.42578 0 0
8.52197 0 0
8.52197 0 0
8.61816 0 0
8.61816 0 0
8.71436 0 0
8.71436 0 0
8.81055 0 0
8.81055 0 0
8.90674 0 0
8.90674 0 0
9.00293 0 0
9.00293 0 0
9.09912 0 0
9.09912 0 0
9.19531 0 0
9.19531 0 0
9.2915 0 0
9.2915 0 0
9.3877 0 0
9.3877 0 0
9.48389 0 0
9.48389 0 0
9.58008 0 0
9.58008 0 0
9.67627 0 0
9.67627 0 0
9.77246 0 0
9.77246 0 0
9.86865 0 0
9.86865 0 0
9.96484 0 0
9.96484 0 0
10.061 0 0
10.061 0 0
10.1572 0 0
10.1572 0 0
10.2534 0 0
10.2534 0 0
10.3496 0 0
10.3496 0 0
10.4458 0 0
10.4458 0 0
10.542 0 0
10.542 0 0
10.6382 0 0
10.6382 0 0
10.7344 0 0
10.7344 0 0
10.8306 0 0
10.8306 0 0
10.9268 0 0
10.9268 0 0
11.0229 0 0
11.0229 0 0
11.1191 0 0
11.1191 0 0
11.2153 0 0
11.2153 0 0
11.3115 0 0
11.3115 0 0
11.4077 0 0
11.4077 0 0
11.5039 0 0
11.5039 0 0
11.6001 0 0
11.6001 0 0
11.6963 0 0
11.6963 0 0
11.7925 0 0
11.7925 0 0
11.8887 0 0
11.8887 0 0
11.9849 0 0
11.9849 0 0
12.0811 0 0
12.0811 0 0
12.1772 0 0
12.1772 0 0
12.2734 0 0
12.2734 0 0
12.3696 0 0
12.3696 0 0
12.4658 0 0
12.4658 0 0
12.562 0 0
12.562 0 0
12.6582 0 0
12.6582 0 0
12.7544 0 0
12.7544 0 0
12.8506 0 0
12.8506 0 0
12.9468 0 0
12.9468 0 0
13.043 0 0
13.043 0 0
13.1392 0 0
13.1392 0 0
13.2354 0 0
13.2354 0 0
13.3315 0 0
13.3315 0 0
13.4277 0 0
13.4277 0 0
13.5239 0 0
13.5239 0 0
13.6201 0 0
13.6201 0 0
13.7163 0 0
13.7163 0 0
13.8125 0 0
13.8125 0 0
13.9087 0 0
13.9087 0 0
14.0049 0 0
14.0049 0 0
14.1011 0 0
14.1011 0 0
14.1973 0 0
14.1973 0 0
14.2935 0 0
14.2935 0 0
14.3896 0 0
14.3896 0 0
14.4858 0 0
14.4858 0 0
14.582 0 0
14.582 0 0
14.6782 0 0
14.6782 0 0
14.7744 0 0
14.7744 0 0
14.8706 0 0
14.8706 0 0
14.9668 0 0
14.9668 0 0
15.063 0 0
15.063 0 0
15.1592 0 0
15.1592 0 0
15.2554 0 0
15.2554 0 0
15.3516 0 0
15.3516 0 0
15.4478 0 0
15.4478 0 0
15.5439 0 0
15.5439 0 0
15.6401 0 0
15.6401 0 0
15.7363 0 0
15.7363 0 0
15.8325 0 0
15.8325 0 0
15.9287 0 0
15.9287 0 0
16.0249 0 0
16.0249 0 0
16.1211 0 0
16.1211 0 0
16.2173 0 0
16.2173 0 0
16.3135 0 0
16.3135 0 0
16.4097 0 0
16.4097 0 0
16.5059 0 0
16.5059 0 0
16.6021 0 0
16.6021 0 0
16.6982 0 0
16.6982 0 0
16.7944 0 0
16.7944 0 0
16.8906 0 0
16.8906 0 0
16.9868 0 0
16.9868 0 0
17.083 0 0
17.083 0 0
17.1792 0 0
17.1792 0 0
17.2754 0 0
17.2754 0 0
17.3716 0 0
17.3716 0 0
17.4678 0 0
17.4678 0 0
17.564 0 0
17.564 0 0
17.6602 0 0
17.6602 0 0
17.7563 0 0
17.7563 0 0
17.8525 0 0
17.8525 0 0
17.9487 0 0
17.9487 0 0
18.0449 0 0
18.0449 0 0
18.1411 0 0
18.1411 0 0
18.2373 0 0
18.2373 0 0
18.3335 0 0
18.3335 0 0
18.4297 0 0
18.4297 0 0
18.5259 0 0
18.5259 0 0
18.6221 0 0
18.6221 0 0
18.7183 0 0
18.7183 0 0
18.8145 0 0
18.8145 0 0
18.9106 0 0
18.9106 0 0
19.0068 0 0
19.0068 0 0
19.103 0 0
19.103 0 0
19.1992 0 0
19.1992 0 0
19.2954 0 0
19.2954 0 0
19.3916 0 0
19.3916 0 0
19.4878 0 0
19.4878 0 0
19.584 0 0
19.584 0 0
19.6802 0 0
19.6802 0 0
19.7764 0 0
19.7764 0 0
19.8726 0 0
19.8726 0 0
19.9688 0 0
19.9688 0 0
20.0649 0 0
20.0649 0 0
20.1611 0 0
20.1611 0 0
20.2573 0 0
20.2573 0 0
20.3535 0 0
20.3535 0 0
20.4497 0 0
20.4497 0 0
20.5459 0 0
20.5459 0 0
20.6421 0 0
20.6421 0 0
20.7383 0 0
20.7383 0 0
20.8345 0 0
20.8345 0 0
20.9307 0 0
20.9307 0 0
21.0269 0 0
21.0269 0 0
21.123 0 0
21.123 0 0
21.2192 0 0
21.2192 0 0
21.3154 0 0
21.3154 0 0
21.4116 0 0
21.4116 0 0
21.5078 0 0
21.5078 0 0
21.604 0 0
21.604 0 0
21.7002 0 0
21.7002 0 0
21.7964 0 0
21.7964 0 0
21.8926 0 0
21.8926 0 0
21.9888 0 0
21.9888 0 0
22.085 0 0
22.085 0 0
22.1812 0 0
22.1812 0 0
22.2773 0 0
22.2773 0 0
22.3735 0 0
22.3735 0 0
22.4697 0 0
22.4697 0 0
22.5659 0 0
22.5659 0 0
22.6621 0 0
22.6621 0 0
22.7583 0 0
22.7583 0 0
22.8545 0 0
22.8545 0 0
22.9507 0 0
22.9507 0 0
23.0469 0 0
23.0469 0 0
23.1431 0 0
23.1431 0 0
23.2393 0 0
23.2393 0 0
23.3354 0 0
23.3354 0 0
23.4316 0 0
23.4316 0 0
23.5278 0 0
23.5278 0 0
23.624 0 0
23.624 0 0
23.7202 0 0
23.7202 0 0
23.8164 0 0
23.8164 0 0
23.9126 0 0
23.9126 0 0
24.0088 0 0
24.0088 0 0
24.105 0 0
24.105 0 0
24.2012 0 0
24.2012 0 0
24.2974 0 0
24.2974 0 0
24.3936 0 0
24.3936 0 0
24.4897 0 0
24.4897 0 0
24.5859 0 0
24.5859 0 0
24.6821 0 0
24.6821 0 0
24.7783 0 0
24.7783 0 0
24.8745 0 0
24.8745 0 0
24.9707 0 0
24.9707 0 0
25.0669 0 0
25.0669 0 0
25.1631 0 0
25.1631 0 0
25.2593 0 0
25.2593 0 0
25.3555 0 0
25.3555 0 0
25.4517 0 0
25.4517 0 0
25.5479 0 0
25.5479 0 0
25.644 0 0
25.644 0 0
25.7402 0 0
25.7402 0 0
25.8364 0 0
25.8364 0 0
25.9326 0 0
25.9326 0 0
26.0288 0 0
26.0288 0 0
26.125 0 0
26.125 0 0
26.2212 0 0
26.2212 0 0
26.3174 0 0
26.3174 0 0
26.4136 0 0
26.4136 0 0
26.5098 0 0
26.5098 0 0
26.606 0 0
26.606 0 0
26.7021 0 0
26.7021 0 0
26.7983 0 0
26.7983 0 0
26.8945 0 0
26.8945 0 0
26.9907 0 0
26.9907 0 0
27.0869 0 0
27.0869 0 0
27.1831 0 0
27.1831 0 0
27.2793 0 0
27.2793 0 0
27.3755 0 0
27.3755 0 0
27.4717 0 0
27.4717 0 0
27.5679 0 0
27.5679 0 0
27.6641 0 0
27.6641 0 0
27.7603 0 0
27.7603 0 0
27.8564 0 0
27.8564 0 0
27.9526 0 0
27.9526 0 0
28.0488 0 0
28.0488 0 0
28.145 0 0
28.145 0 0
28.2412 0 0
28.2412 0 0
28.3374 0 0
28.3374 0 0
28.4336 0 0
28.4336 0 0
28.5298 0 0
28.5298 0 0
28.626 0 0
28.626 0 0
28.7222 0 0
28.7222 0 0
28.8184 0 0
28.8184 0 0
28.9146 0 0
28.9146 0 0
29.0107 0 0
29.0107 0 0
29.1069 0 0
29.1069 0 0
29.2031 0 0
29.2031 0 0
29.2993 0 0
29.2993 0 0
29.3955 0 0
29.3955 0 0
29.4917 0 0
29.4917 0 0
29.5879 0 0
29.5879 0 0
29.6841 0 0
29.6841 0 0
29.7803 0 0
29.7803 0 0
29.8765 0 0
29.8765 0 0
29.9727 0 0
29.9727 0 0
30.0688 0 0
30.0688 0 0
30.165 0 0
30.165 0 0
30.2612 0 0
30.2612 0 0
30.3574 0 0
30.3574 0 0
30.4536 0 0
30.4536 0 0
30.5498 0 0
30.5498 0 0
30.646 0 0
30.646 0 0
30.7422 0 0
30.7422 0 0
30.8384 0 0
30.8384 0 0
30.9346 0 0
30.9346 0 0
31.0308 0 0
31.0308 0 0
31.127 0 0
31.127 0 0
31.2231 0 0
31.2231 0 0
31.3193 0 0
31.3193 0 0
31.4155 0 0
31.4155 0 0
31.5117 0 0
31.5117 0 0
31.6079 0 0
31.6079 0 0
31.7041 0 0
31.7041 0 0
31.8003 0 0
31.8003 0 0
31.8965 0 0
31.8965 0 0
31.9927 0 0
31.9927 0 0
32.0889 0 0
32.0889 0 0
32.1851 0 0
32.1851 0 0
32.2812 0 0
32.2812 0 0
32.3774 0 0
32.3774 0 0
32.4736 0 0
32.4736 0 0
32.5698 0 0
32.5698 0 0
32.666 0 0
32.666 0 0
32.7622 0 0
32.7622 0 0
32.8584 0 0
32.8584 0 0
32.9546 0 0
32.9546 0 0
33.0508 0 0
33.0508 0 0
33.147 0 0
33.147 0 0
33.2432 0 0
33.2432 0 0
33.3394 0 0
33.3394 0 0
33.4355 0 0
33.4355 0 0
33.5317 0 0
33.5317 0 0
33.6279 0 0
33.6279 0 0
33.7241 0 0
33.7241 0 0
33.8203 0 0
33.8203 0 0
33.9165 0 0
33.9165 0 0
34.0127 0 0
34.0127 0 0
34.1089 0 0
34.1089 0 0
34.2051 0 0
34.2051 0 0
34.3013 0 0
34.3013 0 0
34.3975 0 0
34.3975 0 0
34.4937 0 0
34.4937 0 0
34.5898 0 0
34.5898 0 0
34.686 0 0
34.686 0 0
34.7822 0 0
34.7822 0 0
34.8784 0 0
34.8784 0 0
34.9746 0 0
34.9746 0 0
35.0708 0 0
35.0708 0 0
35.167 0 0
35.167 0 0
35.2632 0 0
35.2632 0 0
35.3594 0 0
35.3594 0 0
35.4556 0 0
35.4556 0 0
35.5518 0 0
35.5518 0 0
35.6479 0 0
35.6479 0 0
35.7441 0 0
35.7441 0 0
35.8403 0 0
35.8403 0 0
35.9365 0 0
35.9365 0 0
36.0327 0 0
36.0327 0 0
36.1289 0 0
36.1289 0 0
36.2251 0 0
36.2251 0 0
36.3213 0 0
36.3213 0 0
36.4175 0 0
36.4175 0 0
36.5137 0 0
36.5137 0 0
36.6099 0 0
36.6099 0 0
36.7061 0 0
36.7061 0 0
36.8022 0 0
36.8022 0 0
36.8984 0 0
36.8984 0 0
36.9946 0 0
36.9946 0 0
37.0908 0 0
37.0908 0 0
37.187 0 0
37.187 0 0
37.2832 0 0
37.2832 0 0
37.3794 0 0
37.3794 0 0
37.4756 0 0
37.4756 0 0
37.5718 0 0
37.5718 0 0
37.668 0 0
37.668 0 0
37.7642 0 0
37.7642 0 0
37.8604 0 0
37.8604 0 0
37.9565 0 0
37.9565 0 0
38.0527 0 0
38.0527 0 0
38.1489 0 0
38.1489 0 0
38.2451 0 0
38.2451 0 0
38.3413 0 0
38.3413 0 0
38.4375 0 0
38.4375 0 0
38.5337 0 0
38.5337 0 0
38.6299 0 0
38.6299 0 0
38.7261 0 0
38.7261 0 0
38.8223 0 0
38.8223 0 0
38.9185 0 0
38.9185 0 0
39.0146 0 0
39.0146 0 0
39.1108 0 0
39.1108 0 0
39.207 0 0
39.207 0 0
39.3032 0 0
39.3032 0 0
39.3994 0 0
39.3994 0 0
39.4956 0 0
39.4956 0 0
39.5918 0 0
39.5918 0 0
39.688 0 0
39.688 0 0
39.7842 0 0
39.7842 0 0
39.8804 0 0
39.8804 0 0
39.9766 0 0
39.9766 0 0
40.0728 0 0
40.0728 0 0
40.1689 0 0
40.1689 0 0
40.2651 0 0
40.2651 0 0
40.3613 0 0
40.3613 0 0
40.4575 0 0
40.4575 0 0
40.5537 0 0
40.5537 0 0
40.6499 0 0
40.6499 0 0
40.7461 0 0
40.7461 0 0
40.8423 0 0
40.8423 0 0
40.9385 0 0
40.9385 0 0
41.0347 0 0
41.0347 0 0
41.1309 0 0
41.1309 0 0
41.2271 0 0
41.2271 0 0
[...]
POINT_DATA 2048
SCALARS solution_0 double 1
LOOKUP_TABLE default
0.233993 0.228882 0.228882 0.224174 0.224174 0.219808 0.219808 0.215734 0.215734 0.211915 0.211915 0.20832 0.20832 0.204924 0.204924 0.201706 0.201706 0.198647 0.198647 0.195734 0.195734 0.192954 0.192954 0.190295 0.190295 0.187748 0.187748 0.185304 0.185304 0.182957 0.182957 0.180699 0.180699 0.178524 0.178524 0.176427 0.176427 0.174403 0.174403 0.172449 0.172449 0.170559 0.170559 0.168731 0.168731 0.166961 0.166961 0.165246 0.165246 0.163583 0.163583 0.16197 0.16197 0.160404 0.160404 0.158884 0.158884 0.157406 0.157406 0.15597 0.15597 0.154573 0.154573 0.153214 0.153214 0.15189 0.15189 0.150602 0.150602 0.149347 0.149347 0.148123 0.148123 0.146931 0.146931 0.145768 0.145768 0.144634 0.144634 0.143527 0.143527 0.142447 0.142447 0.141392 0.141392 0.140362 0.140362 0.139356 0.139356 0.138373 0.138373 0.137412 0.137412 0.136473 0.136473 0.135555 0.135555 0.134656 0.134656 0.133778 0.133778 0.132918 0.132918 0.132077 0.132077 0.131254 0.131254 0.130447 0.130447 0.129658 0.129658 0.128885 0.128885 0.128127 0.128127 0.127385 0.127385 0.126657 0.126657 0.125944 0.125944 0.125244 0.125244 0.124558 0.124558 0.123885 0.123885 0.123225 0.123225 0.122577 0.122577 0.121941 0.121941 0.121316 0.121316 0.120702 0.120702 0.120099 0.120099 0.119507 0.119507 0.118924 0.118924 0.118352 0.118352 0.117788 0.117788 0.117234 0.117234 0.116688 0.116688 0.116151 0.116151 0.115621 0.115621 0.1151 0.1151 0.114585 0.114585 0.114078 0.114078 0.113578 0.113578 0.113084 0.113084 0.112597 0.112597 0.112115 0.112115 0.111639 0.111639 0.111168 0.111168 0.110702 0.110702 0.110241 0.110241 0.109785 0.109785 0.109332 0.109332 0.108883 0.108883 0.108438 0.108438 0.107996 0.107996 0.107558 0.107558 0.107121 0.107121 0.106688 0.106688 0.106256 0.106256 0.105827 0.105827 0.105399 0.105399 0.104972 0.104972 0.104547 0.104547 0.104122 0.104122 0.103698 0.103698 0.103274 0.103274 0.10285 0.10285 0.102426 0.102426 0.102002 0.102002 0.101577 0.101577 0.101151 0.101151 0.100724 0.100724 0.100295 0.100295 0.0998645 0.0998645 0.0994323 0.0994323 0.0989978 0.0989978 0.098561 0.098561 0.0981217 0.0981217 0.0976795 0.0976795 0.0972343 0.0972343 0.0967859 0.0967859 0.0963341 0.0963341 0.0958787 0.0958787 0.0954195 0.0954195 0.0949562 0.0949562 0.0944889 0.0944889 0.0940171 0.0940171 0.0935408 0.0935408 0.0930599 0.0930599 0.0925741 0.0925741 0.0920834 0.0920834 0.0915875 0.0915875 0.0910864 0.0910864 0.0905799 0.0905799 0.0900678 0.0900678 0.0895502 0.0895502 0.0890268 0.0890268 0.0884976 0.0884976 0.0879626 0.0879626 0.0874215 0.0874215 0.0868743 0.0868743 0.0863211 0.0863211 0.0857616 0.0857616 0.0851959 0.0851959 0.084624 0.084624 0.0840457 0.0840457 0.0834612 0.0834612 0.0828703 0.0828703 0.0822731 0.0822731 0.0816695 0.0816695 0.0810597 0.0810597 0.0804436 0.0804436 0.0798212 0.0798212 0.0791926 0.0791926 0.0785578 0.0785578 0.077917 0.077917 0.0772701 0.0772701 0.0766173 0.0766173 0.0759587 0.0759587 0.0752942 0.0752942 0.0746241 0.0746241 0.0739485 0.0739485 0.0732674 0.0732674 0.0725811 0.0725811 0.0718896 0.0718896 0.0711931 0.0711931 0.0704917 0.0704917 0.0697856 0.0697856 0.069075 0.069075 0.0683601 0.0683601 0.0676409 0.0676409 0.0669178 0.0669178 0.066191 0.066191 0.0654605 0.0654605 0.0647266 0.0647266 0.0639896 0.0639896 0.0632496 0.0632496 0.0625069 0.0625069 0.0617617 0.0617617 0.0610142 0.0610142 0.0602646 0.0602646 0.0595133 0.0595133 0.0587604 0.0587604 0.0580062 0.0580062 0.0572509 0.0572509 0.0564947 0.0564947 0.055738 0.055738 0.054981 0.054981 0.054224 0.054224 0.0534671 0.0534671 0.0527107 0.0527107 0.051955 0.051955 0.0512003 0.0512003 0.0504468 0.0504468 0.0496949 0.0496949 0.0489448 0.0489448 0.0481967 0.0481967 0.0474509 0.0474509 0.0467078 0.0467078 0.0459676 0.0459676 0.0452305 0.0452305 0.0444969 0.0444969 0.0437671 0.0437671 0.0430413 0.0430413 0.0423198 0.0423198 0.041603 0.041603 0.0408911 0.0408911 0.0401845 0.0401845 0.0394835 0.0394835 0.0387883 0.0387883 0.0380994 0.0380994 0.0374171 0.0374171 0.0367415 0.0367415 0.0360733 0.0360733 0.0354125 0.0354125 0.0347597 0.0347597 0.034115 0.034115 0.033479 0.033479 0.0328519 0.0328519 0.032234 0.032234 0.0316258 0.0316258 0.0310275 0.0310275 0.0304394 0.0304394 0.029862 0.029862 0.0292954 0.0292954 0.0287401 0.0287401 0.0281963 0.0281963 0.0276643 0.0276643 0.0271444 0.0271444 0.0266367 0.0266367 0.0261417 0.0261417 0.0256594 0.0256594 0.0251901 0.0251901 0.0247339 0.0247339 0.024291 0.024291 0.0238616 0.0238616 0.0234457 0.0234457 0.0230433 0.0230433 0.0226547 0.0226547 0.0222797 0.0222797 0.0219183 0.0219183 0.0215707 0.0215707 0.0212366 0.0212366 0.020916 0.020916 0.0206089 0.0206089 0.020315 0.020315 0.0200342 0.0200342 0.0197663 0.0197663 0.0195112 0.0195112 0.0192686 0.0192686 0.0190382 0.0190382 0.0188199 0.0188199 0.0186132 0.0186132 0.018418 0.018418 0.0182338 0.0182338 0.0180605 0.0180605 0.0178975 0.0178975 0.0177446 0.0177446 0.0176015 0.0176015 0.0174677 0.0174677 0.0173428 0.0173428 0.0172265 0.0172265 0.0171184 0.0171184 0.0170181 0.0170181 0.0169252 0.0169252 0.0168393 0.0168393 0.0167599 0.0167599 0.0166868 0.0166868 0.0166195 0.0166195 0.0165575 0.0165575 0.0165006 0.0165006 0.0164484 0.0164484 0.0164003 0.0164003 0.0163562 0.0163562 0.0163156 0.0163156 0.0162781 0.0162781 0.0162435 0.0162435 0.0162114 0.0162114 0.0161815 0.0161815 0.0161534 0.0161534 0.0161269 0.0161269 0.0161017 0.0161017 0.0160775 0.0160775 0.0160541 0.0160541 0.0160313 0.0160313 0.0160089 0.0160089 0.0159866 0.0159866 0.0159643 0.0159643 0.0159418 0.0159418 0.0159191 0.0159191 0.0158959 0.0158959 0.0158722 0.0158722 0.0158479 0.0158479 0.015823 0.015823 0.0157973 0.0157973 0.015771 0.015771 0.0157439 0.0157439 0.0157161 0.0157161 0.0156877 0.0156877 0.0156586 0.0156586 0.0156289 0.0156289 0.0155986 0.0155986 0.015568 0.015568 0.015537 0.015537 0.0155057 0.0155057 0.0154742 0.0154742 0.0154428 0.0154428 0.0154114 0.0154114 0.0153801 0.0153801 0.0153492 0.0153492 0.0153188 0.0153188 0.0152889 0.0152889 0.0152597 0.0152597 0.0152312 0.0152312 0.0152037 0.0152037 0.0151772 0.0151772 0.0151518 0.0151518 0.0151277 0.0151277 0.0151049 0.0151049 0.0150835 0.0150835 0.0150635 0.0150635 0.0150451 0.0150451 0.0150283 0.0150283 0.0150131 0.0150131 0.0149997 0.0149997 0.0149879 0.0149879 0.0149779 0.0149779 0.0149697 0.0149697 0.0149632 0.0149632 0.0149585 0.0149585 0.0149555 0.0149555 0.0149543 0.0149543 0.0149547 0.0149547 0.0149569 0.0149569 0.0149606 0.0149606 0.014966 0.014966 0.0149728 0.0149728 0.0149811 0.0149811 0.0149909 0.0149909 0.015002 0.015002 0.0150144 0.0150144 0.015028 0.015028 0.0150428 0.0150428 0.0150587 0.0150587 0.0150755 0.0150755 0.0150933 0.0150933 0.015112 0.015112 0.0151315 0.0151315 0.0151517 0.0151517 0.0151726 0.0151726 0.0151941 0.0151941 0.0152161 0.0152161 0.0152386 0.0152386 0.0152614 0.0152614 0.0152847 0.0152847 0.0153082 0.0153082 0.015332 0.015332 0.015356 0.015356 0.0153801 0.0153801 0.0154044 0.0154044 0.0154287 0.0154287 0.0154531 0.0154531 0.0154774 0.0154774 0.0155017 0.0155017 0.015526 0.015526 0.0155502 0.0155502 0.0155742 0.0155742 0.0155981 0.0155981 0.0156219 0.0156219 0.0156456 0.0156456 0.015669 0.015669 0.0156923 0.0156923 0.0157153 0.0157153 0.0157382 0.0157382 0.0157609 0.0157609 0.0157833 0.0157833 0.0158055 0.0158055 0.0158276 0.0158276 0.0158494 0.0158494 0.015871 0.015871 0.0158924 0.0158924 0.0159135 0.0159135 0.0159345 0.0159345 0.0159553 0.0159553 0.015976 0.015976 0.0159964 0.0159964 0.0160167 0.0160167 0.0160368 0.0160368 0.0160568 0.0160568 0.0160766 0.0160766 0.0160963 0.0160963 0.0161159 0.0161159 0.0161354 0.0161354 0.0161547 0.0161547 0.016174 0.016174 0.0161932 0.0161932 0.0162124 0.0162124 0.0162315 0.0162315 0.0162506 0.0162506 0.0162696 0.0162696 0.0162886 0.0162886 0.0163077 0.0163077 0.0163267 0.0163267 0.0163458 0.0163458 0.0163648 0.0163648 0.016384 0.016384 0.0164031 0.0164031 0.0164224 0.0164224 0.0164417 0.0164417 0.0164611 0.0164611 0.0164807 0.0164807 0.0165003 0.0165003 0.01652 0.01652 0.0165399 0.0165399 0.0165599 0.0165599 0.0165801 0.0165801 0.0166005 0.0166005 0.016621 0.016621 0.0166417 0.0166417 0.0166626 0.0166626 0.0166837 0.0166837 0.016705 0.016705 0.0167266 0.0167266 0.0167484 0.0167484 0.0167704 0.0167704 0.0167927 0.0167927 0.0168153 0.0168153 0.0168381 0.0168381 0.0168612 0.0168612 0.0168846 0.0168846 0.0169083 0.0169083 0.0169323 0.0169323 0.0169567 0.0169567 0.0169813 0.0169813 0.0170063 0.0170063 0.0170317 0.0170317 0.0170574 0.0170574 0.0170835 0.0170835 0.0171099 0.0171099 0.0171367 0.0171367 0.017164 0.017164 0.0171916 0.0171916 0.0172196 0.0172196 0.017248 0.017248 0.0172769 0.0172769 0.0173062 0.0173062 0.0173359 0.0173359 0.0173661 0.0173661 0.0173968 0.0173968 0.0174279 0.0174279 0.0174595 0.0174595 0.0174916 0.0174916 0.0175242 0.0175242 0.0175572 0.0175572 0.0175908 0.0175908 0.017625 0.017625 0.0176596 0.0176596 0.0176948 0.0176948 0.0177305 0.0177305 0.0177668 0.0177668 0.0178036 0.0178036 0.0178411 0.0178411 0.0178791 0.0178791 0.0179177 0.0179177 0.0179569 0.0179569 0.0179967 0.0179967 0.0180371 0.0180371 0.0180782 0.0180782 0.0181199 0.0181199 0.0181622 0.0181622 0.0182052 0.0182052 0.0182489 0.0182489 0.0182933 0.0182933 0.0183384 0.0183384 0.0183841 0.0183841 0.0184306 0.0184306 0.0184778 0.0184778 0.0185257 0.0185257 0.0185744 0.0185744 0.0186238 0.0186238 0.018674 0.018674 0.018725 0.018725 0.0187768 0.0187768 0.0188294 0.0188294 0.0188828 0.0188828 0.018937 0.018937 0.0189921 0.0189921 0.019048 0.019048 0.0191048 0.0191048 0.0191624 0.0191624 0.019221 0.019221 0.0192805 0.0192805 0.0193408 0.0193408 0.0194022 0.0194022 0.0194645 0.0194645 0.0195277 0.0195277 0.019592 0.019592 0.0196572 0.0196572 0.0197234 0.0197234 0.0197907 0.0197907 0.0198591 0.0198591 0.0199285 0.0199285 0.0199989 0.0199989 0.0200705 0.0200705 0.0201433 0.0201433 0.0202171 0.0202171 0.0202921 0.0202921 0.0203683 0.0203683 0.0204457 0.0204457 0.0205244 0.0205244 0.0206042 0.0206042 0.0206854 0.0206854 0.0207678 0.0207678 0.0208516 0.0208516 0.0209367 0.0209367 0.0210232 0.0210232 0.021111 0.021111 0.0212003 0.0212003 0.0212911 0.0212911 0.0213833 0.0213833 0.021477 0.021477 0.0215723 0.0215723 0.0216691 0.0216691 0.0217676 0.0217676 0.0218677 0.0218677 0.0219694 0.0219694 0.0220729 0.0220729 0.0221781 0.0221781 0.0222851 0.0222851 0.022394 0.022394 0.0225047 0.0225047 0.0226173 0.0226173 0.0227319 0.0227319 0.0228484 0.0228484 0.0229671 0.0229671 0.0230878 0.0230878 0.0232107 0.0232107 0.0233358 0.0233358 0.0234631 0.0234631 0.0235928 0.0235928 0.0237248 0.0237248 0.0238593 0.0238593 0.0239963 0.0239963 0.0241359 0.0241359 0.024278 0.024278 0.0244229 0.0244229 0.0245706 0.0245706 0.0247211 0.0247211 0.0248746 0.0248746 0.025031 0.025031 0.0251906 0.0251906 0.0253534 0.0253534 0.0255194 0.0255194 0.0256888 0.0256888 0.0258616 0.0258616 0.0260381 0.0260381 0.0262182 0.0262182 0.026402 0.026402 0.0265898 0.0265898 0.0267816 0.0267816 0.0269774 0.0269774 0.0271776 0.0271776 0.0273821 0.0273821 0.0275911 0.0275911 0.0278047 0.0278047 0.0280231 0.0280231 0.0282464 0.0282464 0.0284748 0.0284748 0.0287084 0.0287084 0.0289473 0.0289473 0.0291919 0.0291919 0.0294421 0.0294421 0.0296982 0.0296982 0.0299603 0.0299603 0.0302287 0.0302287 0.0305034 0.0305034 0.0307848 0.0307848 0.031073 0.031073 0.0313682 0.0313682 0.0316707 0.0316707 0.0319805 0.0319805 0.032298 0.032298 0.0326233 0.0326233 0.0329567 0.0329567 0.0332985 0.0332985 0.0336488 0.0336488 0.0340079 0.0340079 0.034376 0.034376 0.0347534 0.0347534 0.0351403 0.0351403 0.035537 0.035537 0.0359438 0.0359438 0.0363609 0.0363609 0.0367886 0.0367886 0.0372272 0.0372272 0.0376769 0.0376769 0.038138 0.038138 0.0386108 0.0386108 0.0390955 0.0390955 0.0395925 0.0395925 0.0401021 0.0401021 0.0406244 0.0406244 0.0411598 0.0411598 0.0417087 0.0417087 0.0422712 0.0422712 0.0428476 0.0428476 0.0434382 0.0434382 0.0440434 0.0440434 0.0446633 0.0446633 0.0452982 0.0452982 0.0459485 0.0459485 0.0466143 0.0466143 0.0472959 0.0472959 0.0479935 0.0479935 0.0487074 0.0487074 0.0494378 0.0494378 0.0501849 0.0501849 0.050949 0.050949 0.0517301 0.0517301 0.0525285 0.0525285 0.0533443 0.0533443 0.0541777 0.0541777 0.0550288 0.0550288 0.0558977 0.0558977 0.0567846 0.0567846 0.0576893 0.0576893 0.0586121 0.0586121 0.059553 0.059553 0.0605118 0.0605118 0.0614886 0.0614886 0.0624834 0.0624834 0.063496 0.063496 0.0645263 0.0645263 0.0655742 0.0655742 0.0666394 0.0666394 0.0677218 0.0677218 0.0688211 0.0688211 0.0699369 0.0699369 0.071069 0.071069 0.0722169 0.0722169 0.0733803 0.0733803 0.0745586 0.0745586 0.0757513 0.0757513 0.0769579 0.0769579 0.0781777 0.0781777 0.0794101 0.0794101 0.0806543 0.0806543 0.0819095 0.0819095 0.083175 0.083175 0.0844498 0.0844498 0.0857329 0.0857329 0.0870234 0.0870234 0.0883202 0.0883202 0.0896221 0.0896221 0.0909279 0.0909279 0.0922364 0.0922364 0.0935462 0.0935462 0.094856 0.094856 0.0961643 0.0961643 0.0974695 0.0974695 0.09877 0.09877 0.100064 0.100064 0.10135 0.10135 0.102627 0.102627 0.103891 0.103891 0.105142 0.105142 0.106377 0.106377 0.107594 0.107594 0.108792 0.108792 0.109967 0.109967 0.111118 0.111118 0.112241 0.112241 0.113336 0.113336 0.114399 0.114399 0.115428 0.115428 0.11642 0.11642 0.117372 0.117372 0.118282 0.118282 0.119147 0.119147 0.119964 0.119964 0.120731 0.120731 0.121444 0.121444 0.1221 0.1221 0.122697 0.122697 0.123231 0.123231 0.123699 0.123699 0.124099 0.124099 0.124427 0.124427 0.124679 0.124679 0.124853 0.124853 0.124946 0.124946 0.124955 0.124955 0.124875 0.124875 0.124704 0.124704 0.12444 0.12444 0.124077 0.124077 0.123615 0.123615 0.123048 0.123048 0.122375 0.122375 0.121592 0.121592 0.120696 0.120696 0.119685 0.119685 0.118554 0.118554 0.117302 0.117302 0.115925 0.115925 0.114421 0.114421 0.112788 0.112788 0.111022 0.111022 0.10912 0.10912 0.107082 0.107082 0.104904 0.104904 0.102584 0.102584 0.100121 0.100121 0.0975112 0.0975112 0.0947542 0.0947542 0.0918479 0.0918479 0.0887909 0.0887909 0.0855817 0.0855817 0.0822191 0.0822191 0.078702 0.078702 0.0750295 0.0750295 0.0712009 0.0712009 0.0672156 0.0672156 0.0630732 0.0630732 0.0587735 0.0587735 0.0543166 0.0543166 0.0497025 0.0497025 0.0449316 0.0449316 0.0400046 0.0400046 0.0349222 0.0349222 0.0296855 0.0296855 0.0242955 0.0242955 0.0187538 0.0187538 0.0130619 0.0130619 0.00722163 0.00722163 0.00123516 0.00123516 -0.00489529 -0.00489529 -0.0111672 -0.0111672 -0.0175779 -0.0175779 -0.0241244 -0.0241244 -0.0308036 -0.0308036 -0.037612 -0.037612 -0.0445462 -0.0445462 -0.0516022 -0.0516022 -0.0587761 -0.0587761 -0.0660637 -0.0660637 -0.0734605 -0.0734605 -0.0809618 -0.0809618 -0.0885629 -0.0885629 -0.0962587 -0.0962587 -0.104044 -0.104044 -0.111913 -0.111913 -0.119861 -0.119861 -0.127882 -0.127882 -0.135969 -0.135969 -0.144117 -0.144117 -0.15232 -0.15232 -0.16057 -0.16057 -0.168863 -0.168863 -0.17719 -0.17719 -0.185545 -0.185545 -0.193921 -0.193921 -0.202312 -0.202312 -0.21071 -0.21071 -0.219108 -0.219108 -0.227499 -0.227499 -0.235875 -0.235875 -0.24423 -0.24423 -0.252555 -0.252555 -0.260844 -0.260844 -0.269088 -0.269088 -0.277281 -0.277281 -0.285414 -0.285414 -0.293481 -0.293481 -0.301474 -0.301474 -0.309386 -0.309386 -0.317209 -0.317209 -0.324936 -0.324936 -0.33256 -0.33256 -0.340074 -0.340074 -0.34747 -0.34747 -0.354741 -0.354741 -0.361882 -0.361882 -0.368884 -0.368884 -0.375742 -0.375742 -0.382449 -0.382449 -0.388999 -0.388999 -0.395385 -0.395385 -0.401602 -0.401602 -0.407644 -0.407644 -0.413505 -0.413505 -0.41918 -0.41918 -0.424663 -0.424663 -0.42995 -0.42995 -0.435036 -0.435036 -0.439917 -0.439917 -0.444588 -0.444588 -0.449044 -0.449044 -0.453283 -0.453283 -0.457301 -0.457301 -0.461094 -0.461094 -0.46466 -0.46466 -0.467995 -0.467995 -0.471097 -0.471097 -0.473965 -0.473965 -0.476595 -0.476595 -0.478987 -0.478987 -0.481138 -0.481138 -0.483049 -0.483049 -0.484717 -0.484717 -0.486143 -0.486143 -0.487326 -0.487326 -0.488266 -0.488266 -0.488963 -0.488963 -0.489419 -0.489419 -0.489633 -0.489633 -0.489608 -0.489608 -0.489343 -0.489343 -0.488842 -0.488842 -0.488106 -0.488106 -0.487136 -0.487136 -0.485936 -0.485936 -0.484508 -0.484508 -0.482854 -0.482854 -0.480979 -0.480979 -0.478885 -0.478885 -0.476576 -0.476576 -0.474055 -0.474055 -0.471327 -0.471327 -0.468396 -0.468396 -0.465266 -0.465266 -0.461941 -0.461941 -0.458427 -0.458427 -0.454728 -0.454728 -0.450849 -0.450849 -0.446795 -0.446795 -0.442573 -0.442573 -0.438186 -0.438186 -0.43364 -0.43364 -0.428942 -0.428942 -0.424097 -0.424097 -0.419111 -0.419111 -0.413989 -0.413989 -0.408738 -0.408738 -0.403363 -0.403363 -0.397872 -0.397872 -0.392269 -0.392269 -0.386562 -0.386562 -0.380755 -0.380755 -0.374856 -0.374856 -0.368871 -0.368871 -0.362805 -0.362805 -0.356666 -0.356666 -0.350458 -0.350458 -0.344189 -0.344189 -0.337864 -0.337864 -0.331489 -0.331489 -0.325071 -0.325071 -0.318615 -0.318615 -0.312127 -0.312127 -0.305612 -0.305612 -0.299078 -0.299078 -0.292528 -0.292528 -0.285969 -0.285969 -0.279406 -0.279406 -0.272844 -0.272844 -0.266289 -0.266289 -0.259745 -0.259745 -0.253217 -0.253217 -0.246711 -0.246711 -0.240231 -0.240231 -0.233781 -0.233781 -0.227366 -0.227366 -0.22099 -0.22099 -0.214657 -0.214657 -0.208371 -0.208371 -0.202137 -0.202137 -0.195956 -0.195956 -0.189835 -0.189835 -0.183774 -0.183774 -0.177779 -0.177779 -0.171851 -0.171851 -0.165994 -0.165994 -0.16021 -0.16021 -0.154502 -0.154502 -0.148873 -0.148873 -0.143324 -0.143324 -0.137859 -0.137859 -0.132478 -0.132478 -0.127183 -0.127183 -0.121977 -0.121977 -0.116861 -0.116861 -0.111836 -0.111836 -0.106904 -0.106904 -0.102065 -0.102065 -0.0973207 -0.0973207 -0.0926717 -0.0926717 -0.0881188 -0.0881188 -0.0836624 -0.0836624 -0.0793031 -0.0793031 -0.0750412 -0.0750412 -0.0708768 -0.0708768 -0.0668101 -0.0668101 -0.0628409 -0.0628409 -0.0589693 -0.0589693 -0.0551949 -0.0551949 -0.0515174 -0.0515174 -0.0479363 -0.0479363 -0.0444511 -0.0444511 -0.0410612 -0.0410612 -0.0377659 -0.0377659 -0.0345644 -0.0345644 -0.0314558 -0.0314558 -0.0284392 -0.0284392 -0.0255135 -0.0255135 -0.0226777 -0.0226777 -0.0199307 -0.0199307 -0.0172712 -0.0172712 -0.014698 -0.014698 -0.0122098 -0.0122098 -0.00980523 -0.00980523 -0.00748293 -0.00748293 -0.00524145 -0.00524145 -0.00307932 -0.00307932 -0.000995058 -0.000995058 0.00101288 0.00101288 0.00294604 0.00294604 0.00480601 0.00480601 0.00659437 0.00659437 0.00831274 0.00831274 0.00996275 0.00996275 0.011546 0.011546 0.0130642 0.0130642 0.014519 0.014519 0.0159119 0.0159119 0.0172447 0.0172447 0.0185191 0.0185191 0.0197365 0.0197365 0.0208988 0.0208988 0.0220075 0.0220075 0.0230642 0.0230642 0.0240706 0.0240706 0.0250281 0.0250281 0.0259385 0.0259385 0.0268032 0.0268032 0.0276238 0.0276238 0.0284019 0.0284019 0.0291388 0.0291388 0.029836 0.029836 0.0304951 0.0304951 0.0311175 0.0311175 0.0317044 0.0317044 0.0322574 0.0322574 0.0327776 0.0327776 0.0332666 0.0332666 0.0337255 0.0337255 0.0341555 0.0341555 0.034558 0.034558 0.0349341 0.0349341 0.0352849 0.0352849 0.0356117 0.0356117 0.0359155 0.0359155 0.0361974 0.0361974 0.0364584 0.0364584 0.0366995 0.0366995 0.0369218 0.0369218 0.0371261 0.0371261 0.0373135 0.0373135 0.0374847 0.0374847 0.0376406 0.0376406 0.0377822 0.0377822 0.0379101 0.0379101 0.0380251 0.0380251 0.0381281 0.0381281 0.0382197 0.0382197 0.0383005 0.0383005 0.0383713 0.0383713 0.0384328 0.0384328 0.0384854 0.0384854 0.0385298 0.0385298 0.0385665 0.0385665 0.0385962 0.0385962 0.0386192 0.0386192 0.0386361 0.0386361 0.0386474 0.0386474 0.0386534 0.0386534 0.0386547 0.0386547 0.0386515 0.0386515 0.0386444 0.0386444 0.0386336 0.0386336 0.0386195 0.0386195 0.0386024 0.0386024 0.0385827 0.0385827 0.0385605 0.0385605 0.0385363 0.0385363 0.0385102 0.0385102 0.0384825 0.0384825 0.0384534 0.0384534 0.0384231 0.0384231 0.0383919 0.0383919 0.0383598 0.0383598 0.0383272 0.0383272 0.0382941 0.0382941 0.0382607 0.0382607 0.0382272 0.0382272 0.0381936 0.0381936 0.0381602 0.0381602 0.0381269 0.0381269 0.0380939 0.0380939 0.0380614 0.0380614 0.0380293 0.0380293 0.0379978 0.0379978 0.0379669 0.0379669 0.0379368 0.0379368 0.0379074 0.0379074 0.0378788 0.0378788 0.037851 0.037851 0.0378242 0.0378242 0.0377982 0.03