# vtk DataFile Version 3.0
#This file was generated by the deal.II library on 2020/9/1 at 14:41:47
ASCII
DATASET UNSTRUCTURED_GRID

POINTS 2048 double
1.5 0 0
1.59619 0 0
1.59619 0 0
1.69238 0 0
1.69238 0 0
1.78857 0 0
1.78857 0 0
1.88477 0 0
1.88477 0 0
1.98096 0 0
1.98096 0 0
2.07715 0 0
2.07715 0 0
2.17334 0 0
2.17334 0 0
2.26953 0 0
2.26953 0 0
2.36572 0 0
2.36572 0 0
2.46191 0 0
2.46191 0 0
2.55811 0 0
2.55811 0 0
2.6543 0 0
2.6543 0 0
2.75049 0 0
2.75049 0 0
2.84668 0 0
2.84668 0 0
2.94287 0 0
2.94287 0 0
3.03906 0 0
3.03906 0 0
3.13525 0 0
3.13525 0 0
3.23145 0 0
3.23145 0 0
3.32764 0 0
3.32764 0 0
3.42383 0 0
3.42383 0 0
3.52002 0 0
3.52002 0 0
3.61621 0 0
3.61621 0 0
3.7124 0 0
3.7124 0 0
3.80859 0 0
3.80859 0 0
3.90479 0 0
3.90479 0 0
4.00098 0 0
4.00098 0 0
4.09717 0 0
4.09717 0 0
4.19336 0 0
4.19336 0 0
4.28955 0 0
4.28955 0 0
4.38574 0 0
4.38574 0 0
4.48193 0 0
4.48193 0 0
4.57812 0 0
4.57812 0 0
4.67432 0 0
4.67432 0 0
4.77051 0 0
4.77051 0 0
4.8667 0 0
4.8667 0 0
4.96289 0 0
4.96289 0 0
5.05908 0 0
5.05908 0 0
5.15527 0 0
5.15527 0 0
5.25146 0 0
5.25146 0 0
5.34766 0 0
5.34766 0 0
5.44385 0 0
5.44385 0 0
5.54004 0 0
5.54004 0 0
5.63623 0 0
5.63623 0 0
5.73242 0 0
5.73242 0 0
5.82861 0 0
5.82861 0 0
5.9248 0 0
5.9248 0 0
6.021 0 0
6.021 0 0
6.11719 0 0
6.11719 0 0
6.21338 0 0
6.21338 0 0
6.30957 0 0
6.30957 0 0
6.40576 0 0
6.40576 0 0
6.50195 0 0
6.50195 0 0
6.59814 0 0
6.59814 0 0
6.69434 0 0
6.69434 0 0
6.79053 0 0
6.79053 0 0
6.88672 0 0
6.88672 0 0
6.98291 0 0
6.98291 0 0
7.0791 0 0
7.0791 0 0
7.17529 0 0
7.17529 0 0
7.27148 0 0
7.27148 0 0
7.36768 0 0
7.36768 0 0
7.46387 0 0
7.46387 0 0
7.56006 0 0
7.56006 0 0
7.65625 0 0
7.65625 0 0
7.75244 0 0
7.75244 0 0
7.84863 0 0
7.84863 0 0
7.94482 0 0
7.94482 0 0
8.04102 0 0
8.04102 0 0
8.13721 0 0
8.13721 0 0
8.2334 0 0
8.2334 0 0
8.32959 0 0
8.32959 0 0
8.42578 0 0
8.42578 0 0
8.52197 0 0
8.52197 0 0
8.61816 0 0
8.61816 0 0
8.71436 0 0
8.71436 0 0
8.81055 0 0
8.81055 0 0
8.90674 0 0
8.90674 0 0
9.00293 0 0
9.00293 0 0
9.09912 0 0
9.09912 0 0
9.19531 0 0
9.19531 0 0
9.2915 0 0
9.2915 0 0
9.3877 0 0
9.3877 0 0
9.48389 0 0
9.48389 0 0
9.58008 0 0
9.58008 0 0
9.67627 0 0
9.67627 0 0
9.77246 0 0
9.77246 0 0
9.86865 0 0
9.86865 0 0
9.96484 0 0
9.96484 0 0
10.061 0 0
10.061 0 0
10.1572 0 0
10.1572 0 0
10.2534 0 0
10.2534 0 0
10.3496 0 0
10.3496 0 0
10.4458 0 0
10.4458 0 0
10.542 0 0
10.542 0 0
10.6382 0 0
10.6382 0 0
10.7344 0 0
10.7344 0 0
10.8306 0 0
10.8306 0 0
10.9268 0 0
10.9268 0 0
11.0229 0 0
11.0229 0 0
11.1191 0 0
11.1191 0 0
11.2153 0 0
11.2153 0 0
11.3115 0 0
11.3115 0 0
11.4077 0 0
11.4077 0 0
11.5039 0 0
11.5039 0 0
11.6001 0 0
11.6001 0 0
11.6963 0 0
11.6963 0 0
11.7925 0 0
11.7925 0 0
11.8887 0 0
11.8887 0 0
11.9849 0 0
11.9849 0 0
12.0811 0 0
12.0811 0 0
12.1772 0 0
12.1772 0 0
12.2734 0 0
12.2734 0 0
12.3696 0 0
12.3696 0 0
12.4658 0 0
12.4658 0 0
12.562 0 0
12.562 0 0
12.6582 0 0
12.6582 0 0
12.7544 0 0
12.7544 0 0
12.8506 0 0
12.8506 0 0
12.9468 0 0
12.9468 0 0
13.043 0 0
13.043 0 0
13.1392 0 0
13.1392 0 0
13.2354 0 0
13.2354 0 0
13.3315 0 0
13.3315 0 0
13.4277 0 0
13.4277 0 0
13.5239 0 0
13.5239 0 0
13.6201 0 0
13.6201 0 0
13.7163 0 0
13.7163 0 0
13.8125 0 0
13.8125 0 0
13.9087 0 0
13.9087 0 0
14.0049 0 0
14.0049 0 0
14.1011 0 0
14.1011 0 0
14.1973 0 0
14.1973 0 0
14.2935 0 0
14.2935 0 0
14.3896 0 0
14.3896 0 0
14.4858 0 0
14.4858 0 0
14.582 0 0
14.582 0 0
14.6782 0 0
14.6782 0 0
14.7744 0 0
14.7744 0 0
14.8706 0 0
14.8706 0 0
14.9668 0 0
14.9668 0 0
15.063 0 0
15.063 0 0
15.1592 0 0
15.1592 0 0
15.2554 0 0
15.2554 0 0
15.3516 0 0
15.3516 0 0
15.4478 0 0
15.4478 0 0
15.5439 0 0
15.5439 0 0
15.6401 0 0
15.6401 0 0
15.7363 0 0
15.7363 0 0
15.8325 0 0
15.8325 0 0
15.9287 0 0
15.9287 0 0
16.0249 0 0
16.0249 0 0
16.1211 0 0
16.1211 0 0
16.2173 0 0
16.2173 0 0
16.3135 0 0
16.3135 0 0
16.4097 0 0
16.4097 0 0
16.5059 0 0
16.5059 0 0
16.6021 0 0
16.6021 0 0
16.6982 0 0
16.6982 0 0
16.7944 0 0
16.7944 0 0
16.8906 0 0
16.8906 0 0
16.9868 0 0
16.9868 0 0
17.083 0 0
17.083 0 0
17.1792 0 0
17.1792 0 0
17.2754 0 0
17.2754 0 0
17.3716 0 0
17.3716 0 0
17.4678 0 0
17.4678 0 0
17.564 0 0
17.564 0 0
17.6602 0 0
17.6602 0 0
17.7563 0 0
17.7563 0 0
17.8525 0 0
17.8525 0 0
17.9487 0 0
17.9487 0 0
18.0449 0 0
18.0449 0 0
18.1411 0 0
18.1411 0 0
18.2373 0 0
18.2373 0 0
18.3335 0 0
18.3335 0 0
18.4297 0 0
18.4297 0 0
18.5259 0 0
18.5259 0 0
18.6221 0 0
18.6221 0 0
18.7183 0 0
18.7183 0 0
18.8145 0 0
18.8145 0 0
18.9106 0 0
18.9106 0 0
19.0068 0 0
19.0068 0 0
19.103 0 0
19.103 0 0
19.1992 0 0
19.1992 0 0
19.2954 0 0
19.2954 0 0
19.3916 0 0
19.3916 0 0
19.4878 0 0
19.4878 0 0
19.584 0 0
19.584 0 0
19.6802 0 0
19.6802 0 0
19.7764 0 0
19.7764 0 0
19.8726 0 0
19.8726 0 0
19.9688 0 0
19.9688 0 0
20.0649 0 0
20.0649 0 0
20.1611 0 0
20.1611 0 0
20.2573 0 0
20.2573 0 0
20.3535 0 0
20.3535 0 0
20.4497 0 0
20.4497 0 0
20.5459 0 0
20.5459 0 0
20.6421 0 0
20.6421 0 0
20.7383 0 0
20.7383 0 0
20.8345 0 0
20.8345 0 0
20.9307 0 0
20.9307 0 0
21.0269 0 0
21.0269 0 0
21.123 0 0
21.123 0 0
21.2192 0 0
21.2192 0 0
21.3154 0 0
21.3154 0 0
21.4116 0 0
21.4116 0 0
21.5078 0 0
21.5078 0 0
21.604 0 0
21.604 0 0
21.7002 0 0
21.7002 0 0
21.7964 0 0
21.7964 0 0
21.8926 0 0
21.8926 0 0
21.9888 0 0
21.9888 0 0
22.085 0 0
22.085 0 0
22.1812 0 0
22.1812 0 0
22.2773 0 0
22.2773 0 0
22.3735 0 0
22.3735 0 0
22.4697 0 0
22.4697 0 0
22.5659 0 0
22.5659 0 0
22.6621 0 0
22.6621 0 0
22.7583 0 0
22.7583 0 0
22.8545 0 0
22.8545 0 0
22.9507 0 0
22.9507 0 0
23.0469 0 0
23.0469 0 0
23.1431 0 0
23.1431 0 0
23.2393 0 0
23.2393 0 0
23.3354 0 0
23.3354 0 0
23.4316 0 0
23.4316 0 0
23.5278 0 0
23.5278 0 0
23.624 0 0
23.624 0 0
23.7202 0 0
23.7202 0 0
23.8164 0 0
23.8164 0 0
23.9126 0 0
23.9126 0 0
24.0088 0 0
24.0088 0 0
24.105 0 0
24.105 0 0
24.2012 0 0
24.2012 0 0
24.2974 0 0
24.2974 0 0
24.3936 0 0
24.3936 0 0
24.4897 0 0
24.4897 0 0
24.5859 0 0
24.5859 0 0
24.6821 0 0
24.6821 0 0
24.7783 0 0
24.7783 0 0
24.8745 0 0
24.8745 0 0
24.9707 0 0
24.9707 0 0
25.0669 0 0
25.0669 0 0
25.1631 0 0
25.1631 0 0
25.2593 0 0
25.2593 0 0
25.3555 0 0
25.3555 0 0
25.4517 0 0
25.4517 0 0
25.5479 0 0
25.5479 0 0
25.644 0 0
25.644 0 0
25.7402 0 0
25.7402 0 0
25.8364 0 0
25.8364 0 0
25.9326 0 0
25.9326 0 0
26.0288 0 0
26.0288 0 0
26.125 0 0
26.125 0 0
26.2212 0 0
26.2212 0 0
26.3174 0 0
26.3174 0 0
26.4136 0 0
26.4136 0 0
26.5098 0 0
26.5098 0 0
26.606 0 0
26.606 0 0
26.7021 0 0
26.7021 0 0
26.7983 0 0
26.7983 0 0
26.8945 0 0
26.8945 0 0
26.9907 0 0
26.9907 0 0
27.0869 0 0
27.0869 0 0
27.1831 0 0
27.1831 0 0
27.2793 0 0
27.2793 0 0
27.3755 0 0
27.3755 0 0
27.4717 0 0
27.4717 0 0
27.5679 0 0
27.5679 0 0
27.6641 0 0
27.6641 0 0
27.7603 0 0
27.7603 0 0
27.8564 0 0
27.8564 0 0
27.9526 0 0
27.9526 0 0
28.0488 0 0
28.0488 0 0
28.145 0 0
28.145 0 0
28.2412 0 0
28.2412 0 0
28.3374 0 0
28.3374 0 0
28.4336 0 0
28.4336 0 0
28.5298 0 0
28.5298 0 0
28.626 0 0
28.626 0 0
28.7222 0 0
28.7222 0 0
28.8184 0 0
28.8184 0 0
28.9146 0 0
28.9146 0 0
29.0107 0 0
29.0107 0 0
29.1069 0 0
29.1069 0 0
29.2031 0 0
29.2031 0 0
29.2993 0 0
29.2993 0 0
29.3955 0 0
29.3955 0 0
29.4917 0 0
29.4917 0 0
29.5879 0 0
29.5879 0 0
29.6841 0 0
29.6841 0 0
29.7803 0 0
29.7803 0 0
29.8765 0 0
29.8765 0 0
29.9727 0 0
29.9727 0 0
30.0688 0 0
30.0688 0 0
30.165 0 0
30.165 0 0
30.2612 0 0
30.2612 0 0
30.3574 0 0
30.3574 0 0
30.4536 0 0
30.4536 0 0
30.5498 0 0
30.5498 0 0
30.646 0 0
30.646 0 0
30.7422 0 0
30.7422 0 0
30.8384 0 0
30.8384 0 0
30.9346 0 0
30.9346 0 0
31.0308 0 0
31.0308 0 0
31.127 0 0
31.127 0 0
31.2231 0 0
31.2231 0 0
31.3193 0 0
31.3193 0 0
31.4155 0 0
31.4155 0 0
31.5117 0 0
31.5117 0 0
31.6079 0 0
31.6079 0 0
31.7041 0 0
31.7041 0 0
31.8003 0 0
31.8003 0 0
31.8965 0 0
31.8965 0 0
31.9927 0 0
31.9927 0 0
32.0889 0 0
32.0889 0 0
32.1851 0 0
32.1851 0 0
32.2812 0 0
32.2812 0 0
32.3774 0 0
32.3774 0 0
32.4736 0 0
32.4736 0 0
32.5698 0 0
32.5698 0 0
32.666 0 0
32.666 0 0
32.7622 0 0
32.7622 0 0
32.8584 0 0
32.8584 0 0
32.9546 0 0
32.9546 0 0
33.0508 0 0
33.0508 0 0
33.147 0 0
33.147 0 0
33.2432 0 0
33.2432 0 0
33.3394 0 0
33.3394 0 0
33.4355 0 0
33.4355 0 0
33.5317 0 0
33.5317 0 0
33.6279 0 0
33.6279 0 0
33.7241 0 0
33.7241 0 0
33.8203 0 0
33.8203 0 0
33.9165 0 0
33.9165 0 0
34.0127 0 0
34.0127 0 0
34.1089 0 0
34.1089 0 0
34.2051 0 0
34.2051 0 0
34.3013 0 0
34.3013 0 0
34.3975 0 0
34.3975 0 0
34.4937 0 0
34.4937 0 0
34.5898 0 0
34.5898 0 0
34.686 0 0
34.686 0 0
34.7822 0 0
34.7822 0 0
34.8784 0 0
34.8784 0 0
34.9746 0 0
34.9746 0 0
35.0708 0 0
35.0708 0 0
35.167 0 0
35.167 0 0
35.2632 0 0
35.2632 0 0
35.3594 0 0
35.3594 0 0
35.4556 0 0
35.4556 0 0
35.5518 0 0
35.5518 0 0
35.6479 0 0
35.6479 0 0
35.7441 0 0
35.7441 0 0
35.8403 0 0
35.8403 0 0
35.9365 0 0
35.9365 0 0
36.0327 0 0
36.0327 0 0
36.1289 0 0
36.1289 0 0
36.2251 0 0
36.2251 0 0
36.3213 0 0
36.3213 0 0
36.4175 0 0
36.4175 0 0
36.5137 0 0
36.5137 0 0
36.6099 0 0
36.6099 0 0
36.7061 0 0
36.7061 0 0
36.8022 0 0
36.8022 0 0
36.8984 0 0
36.8984 0 0
36.9946 0 0
36.9946 0 0
37.0908 0 0
37.0908 0 0
37.187 0 0
37.187 0 0
37.2832 0 0
37.2832 0 0
37.3794 0 0
37.3794 0 0
37.4756 0 0
37.4756 0 0
37.5718 0 0
37.5718 0 0
37.668 0 0
37.668 0 0
37.7642 0 0
37.7642 0 0
37.8604 0 0
37.8604 0 0
37.9565 0 0
37.9565 0 0
38.0527 0 0
38.0527 0 0
38.1489 0 0
38.1489 0 0
38.2451 0 0
38.2451 0 0
38.3413 0 0
38.3413 0 0
38.4375 0 0
38.4375 0 0
38.5337 0 0
38.5337 0 0
38.6299 0 0
38.6299 0 0
38.7261 0 0
38.7261 0 0
38.8223 0 0
38.8223 0 0
38.9185 0 0
38.9185 0 0
39.0146 0 0
39.0146 0 0
39.1108 0 0
39.1108 0 0
39.207 0 0
39.207 0 0
39.3032 0 0
39.3032 0 0
39.3994 0 0
39.3994 0 0
39.4956 0 0
39.4956 0 0
39.5918 0 0
39.5918 0 0
39.688 0 0
39.688 0 0
39.7842 0 0
39.7842 0 0
39.8804 0 0
39.8804 0 0
39.9766 0 0
39.9766 0 0
40.0728 0 0
40.0728 0 0
40.1689 0 0
40.1689 0 0
40.2651 0 0
40.2651 0 0
40.3613 0 0
40.3613 0 0
40.4575 0 0
40.4575 0 0
40.5537 0 0
40.5537 0 0
40.6499 0 0
40.6499 0 0
40.7461 0 0
40.7461 0 0
40.8423 0 0
40.8423 0 0
40.9385 0 0
40.9385 0 0
41.0347 0 0
41.0347 0 0
41.1309 0 0
41.1309 0 0
41.2271 0 0
41.2271 0 0
[...]
POINT_DATA 2048
SCALARS solution_0 double 1
LOOKUP_TABLE default
0.0302147 0.0296752 0.0296752 0.0291543 0.0291543 0.0286515 0.0286515 0.0281664 0.0281664 0.0276981 0.0276981 0.0272461 0.0272461 0.0268095 0.0268095 0.0263879 0.0263879 0.0259805 0.0259805 0.0255868 0.0255868 0.0252063 0.0252063 0.0248386 0.0248386 0.0244832 0.0244832 0.0241398 0.0241398 0.023808 0.023808 0.0234874 0.0234874 0.0231778 0.0231778 0.0228788 0.0228788 0.0225902 0.0225902 0.0223118 0.0223118 0.0220433 0.0220433 0.0217844 0.0217844 0.021535 0.021535 0.0212948 0.0212948 0.0210636 0.0210636 0.0208412 0.0208412 0.0206275 0.0206275 0.0204221 0.0204221 0.020225 0.020225 0.0200359 0.0200359 0.0198546 0.0198546 0.0196809 0.0196809 0.0195147 0.0195147 0.0193558 0.0193558 0.0192039 0.0192039 0.0190589 0.0190589 0.0189205 0.0189205 0.0187886 0.0187886 0.0186631 0.0186631 0.0185436 0.0185436 0.01843 0.01843 0.0183221 0.0183221 0.0182197 0.0182197 0.0181227 0.0181227 0.0180308 0.0180308 0.0179437 0.0179437 0.0178615 0.0178615 0.0177837 0.0177837 0.0177104 0.0177104 0.0176411 0.0176411 0.0175759 0.0175759 0.0175144 0.0175144 0.0174565 0.0174565 0.0174021 0.0174021 0.0173509 0.0173509 0.0173027 0.0173027 0.0172574 0.0172574 0.0172148 0.0172148 0.0171748 0.0171748 0.0171371 0.0171371 0.0171016 0.0171016 0.0170682 0.0170682 0.0170368 0.0170368 0.017007 0.017007 0.0169789 0.0169789 0.0169522 0.0169522 0.0169269 0.0169269 0.0169028 0.0169028 0.0168798 0.0168798 0.0168577 0.0168577 0.0168365 0.0168365 0.016816 0.016816 0.0167962 0.0167962 0.0167768 0.0167768 0.016758 0.016758 0.0167394 0.0167394 0.0167212 0.0167212 0.0167031 0.0167031 0.0166851 0.0166851 0.0166672 0.0166672 0.0166492 0.0166492 0.0166312 0.0166312 0.0166131 0.0166131 0.0165948 0.0165948 0.0165762 0.0165762 0.0165574 0.0165574 0.0165383 0.0165383 0.0165188 0.0165188 0.0164991 0.0164991 0.0164789 0.0164789 0.0164583 0.0164583 0.0164373 0.0164373 0.0164159 0.0164159 0.0163941 0.0163941 0.0163718 0.0163718 0.0163491 0.0163491 0.016326 0.016326 0.0163024 0.0163024 0.0162784 0.0162784 0.016254 0.016254 0.0162292 0.0162292 0.016204 0.016204 0.0161784 0.0161784 0.0161525 0.0161525 0.0161262 0.0161262 0.0160996 0.0160996 0.0160728 0.0160728 0.0160456 0.0160456 0.0160182 0.0160182 0.0159906 0.0159906 0.0159628 0.0159628 0.0159348 0.0159348 0.0159067 0.0159067 0.0158784 0.0158784 0.0158501 0.0158501 0.0158217 0.0158217 0.0157933 0.0157933 0.0157649 0.0157649 0.0157365 0.0157365 0.0157082 0.0157082 0.01568 0.01568 0.0156519 0.0156519 0.0156239 0.0156239 0.0155961 0.0155961 0.0155685 0.0155685 0.0155411 0.0155411 0.0155139 0.0155139 0.0154871 0.0154871 0.0154605 0.0154605 0.0154343 0.0154343 0.0154084 0.0154084 0.0153828 0.0153828 0.0153577 0.0153577 0.0153329 0.0153329 0.0153086 0.0153086 0.0152848 0.0152848 0.0152614 0.0152614 0.0152385 0.0152385 0.0152161 0.0152161 0.0151942 0.0151942 0.0151728 0.0151728 0.015152 0.015152 0.0151318 0.0151318 0.0151121 0.0151121 0.0150931 0.0150931 0.0150746 0.0150746 0.0150568 0.0150568 0.0150395 0.0150395 0.0150229 0.0150229 0.015007 0.015007 0.0149917 0.0149917 0.014977 0.014977 0.0149631 0.0149631 0.0149498 0.0149498 0.0149371 0.0149371 0.0149252 0.0149252 0.014914 0.014914 0.0149034 0.0149034 0.0148936 0.0148936 0.0148845 0.0148845 0.014876 0.014876 0.0148683 0.0148683 0.0148614 0.0148614 0.0148551 0.0148551 0.0148495 0.0148495 0.0148447 0.0148447 0.0148406 0.0148406 0.0148373 0.0148373 0.0148347 0.0148347 0.0148328 0.0148328 0.0148316 0.0148316 0.0148312 0.0148312 0.0148315 0.0148315 0.0148326 0.0148326 0.0148344 0.0148344 0.0148369 0.0148369 0.0148402 0.0148402 0.0148442 0.0148442 0.0148489 0.0148489 0.0148544 0.0148544 0.0148607 0.0148607 0.0148676 0.0148676 0.0148754 0.0148754 0.0148838 0.0148838 0.014893 0.014893 0.014903 0.014903 0.0149136 0.0149136 0.0149251 0.0149251 0.0149372 0.0149372 0.0149501 0.0149501 0.0149637 0.0149637 0.0149781 0.0149781 0.0149932 0.0149932 0.015009 0.015009 0.0150256 0.0150256 0.0150429 0.0150429 0.0150609 0.0150609 0.0150797 0.0150797 0.0150991 0.0150991 0.0151193 0.0151193 0.0151403 0.0151403 0.0151619 0.0151619 0.0151843 0.0151843 0.0152073 0.0152073 0.0152311 0.0152311 0.0152556 0.0152556 0.0152808 0.0152808 0.0153067 0.0153067 0.0153332 0.0153332 0.0153605 0.0153605 0.0153885 0.0153885 0.0154171 0.0154171 0.0154464 0.0154464 0.0154763 0.0154763 0.015507 0.015507 0.0155382 0.0155382 0.0155701 0.0155701 0.0156027 0.0156027 0.0156359 0.0156359 0.0156697 0.0156697 0.015704 0.015704 0.015739 0.015739 0.0157746 0.0157746 0.0158107 0.0158107 0.0158474 0.0158474 0.0158847 0.0158847 0.0159225 0.0159225 0.0159607 0.0159607 0.0159995 0.0159995 0.0160388 0.0160388 0.0160785 0.0160785 0.0161187 0.0161187 0.0161593 0.0161593 0.0162003 0.0162003 0.0162418 0.0162418 0.0162835 0.0162835 0.0163257 0.0163257 0.0163681 0.0163681 0.0164108 0.0164108 0.0164539 0.0164539 0.0164971 0.0164971 0.0165406 0.0165406 0.0165843 0.0165843 0.0166281 0.0166281 0.0166721 0.0166721 0.0167162 0.0167162 0.0167604 0.0167604 0.0168046 0.0168046 0.0168488 0.0168488 0.016893 0.016893 0.0169372 0.0169372 0.0169812 0.0169812 0.0170252 0.0170252 0.017069 0.017069 0.0171126 0.0171126 0.017156 0.017156 0.0171991 0.0171991 0.017242 0.017242 0.0172845 0.0172845 0.0173266 0.0173266 0.0173683 0.0173683 0.0174096 0.0174096 0.0174505 0.0174505 0.0174908 0.0174908 0.0175306 0.0175306 0.0175698 0.0175698 0.0176084 0.0176084 0.0176464 0.0176464 0.0176837 0.0176837 0.0177204 0.0177204 0.0177563 0.0177563 0.0177915 0.0177915 0.0178259 0.0178259 0.0178596 0.0178596 0.0178924 0.0178924 0.0179245 0.0179245 0.0179557 0.0179557 0.0179861 0.0179861 0.0180157 0.0180157 0.0180445 0.0180445 0.0180725 0.0180725 0.0180997 0.0180997 0.0181261 0.0181261 0.0181517 0.0181517 0.0181766 0.0181766 0.0182008 0.0182008 0.0182243 0.0182243 0.0182473 0.0182473 0.0182697 0.0182697 0.0182916 0.0182916 0.0183131 0.0183131 0.0183343 0.0183343 0.0183552 0.0183552 0.018376 0.018376 0.0183968 0.0183968 0.0184178 0.0184178 0.0184389 0.0184389 0.0184605 0.0184605 0.0184826 0.0184826 0.0185055 0.0185055 0.0185293 0.0185293 0.0185543 0.0185543 0.0185806 0.0185806 0.0186085 0.0186085 0.0186382 0.0186382 0.0186701 0.0186701 0.0187044 0.0187044 0.0187413 0.0187413 0.0187814 0.0187814 0.0188248 0.0188248 0.018872 0.018872 0.0189233 0.0189233 0.0189792 0.0189792 0.0190401 0.0190401 0.0191064 0.0191064 0.0191787 0.0191787 0.0192574 0.0192574 0.0193431 0.0193431 0.0194363 0.0194363 0.0195376 0.0195376 0.0196477 0.0196477 0.0197671 0.0197671 0.0198965 0.0198965 0.0200367 0.0200367 0.0201883 0.0201883 0.0203521 0.0203521 0.0205289 0.0205289 0.0207196 0.0207196 0.0209249 0.0209249 0.0211457 0.0211457 0.021383 0.021383 0.0216377 0.0216377 0.0219107 0.0219107 0.0222031 0.0222031 0.022516 0.022516 0.0228504 0.0228504 0.0232074 0.0232074 0.0235881 0.0235881 0.0239938 0.0239938 0.0244256 0.0244256 0.0248848 0.0248848 0.0253727 0.0253727 0.0258906 0.0258906 0.0264397 0.0264397 0.0270216 0.0270216 0.0276375 0.0276375 0.028289 0.028289 0.0289775 0.0289775 0.0297044 0.0297044 0.0304714 0.0304714 0.03128 0.03128 0.0321316 0.0321316 0.0330281 0.0330281 0.0339709 0.0339709 0.0349618 0.0349618 0.0360023 0.0360023 0.0370943 0.0370943 0.0382394 0.0382394 0.0394393 0.0394393 0.0406958 0.0406958 0.0420107 0.0420107 0.0433857 0.0433857 0.0448227 0.0448227 0.0463233 0.0463233 0.0478894 0.0478894 0.0495228 0.0495228 0.0512253 0.0512253 0.0529987 0.0529987 0.0548447 0.0548447 0.0567652 0.0567652 0.0587619 0.0587619 0.0608366 0.0608366 0.0629911 0.0629911 0.0652269 0.0652269 0.0675459 0.0675459 0.0699497 0.0699497 0.07244 0.07244 0.0750182 0.0750182 0.0776861 0.0776861 0.0804451 0.0804451 0.0832967 0.0832967 0.0862424 0.0862424 0.0892835 0.0892835 0.0924212 0.0924212 0.095657 0.095657 0.098992 0.098992 0.102427 0.102427 0.105964 0.105964 0.109603 0.109603 0.113345 0.113345 0.117191 0.117191 0.121141 0.121141 0.125197 0.125197 0.129359 0.129359 0.133627 0.133627 0.138001 0.138001 0.142482 0.142482 0.14707 0.14707 0.151764 0.151764 0.156564 0.156564 0.161471 0.161471 0.166484 0.166484 0.171601 0.171601 0.176823 0.176823 0.182148 0.182148 0.187575 0.187575 0.193104 0.193104 0.198732 0.198732 0.204459 0.204459 0.210282 0.210282 0.2162 0.2162 0.222211 0.222211 0.228312 0.228312 0.234501 0.234501 0.240776 0.240776 0.247134 0.247134 0.253571 0.253571 0.260086 0.260086 0.266674 0.266674 0.273332 0.273332 0.280056 0.280056 0.286843 0.286843 0.293688 0.293688 0.300588 0.300588 0.307537 0.307537 0.314532 0.314532 0.321567 0.321567 0.328638 0.328638 0.335739 0.335739 0.342864 0.342864 0.35001 0.35001 0.357168 0.357168 0.364335 0.364335 0.371503 0.371503 0.378667 0.378667 0.38582 0.38582 0.392955 0.392955 0.400066 0.400066 0.407146 0.407146 0.414188 0.414188 0.421185 0.421185 0.428129 0.428129 0.435012 0.435012 0.441829 0.441829 0.44857 0.44857 0.455228 0.455228 0.461795 0.461795 0.468263 0.468263 0.474624 0.474624 0.48087 0.48087 0.486992 0.486992 0.492983 0.492983 0.498834 0.498834 0.504537 0.504537 0.510083 0.510083 0.515464 0.515464 0.520671 0.520671 0.525697 0.525697 0.530531 0.530531 0.535168 0.535168 0.539597 0.539597 0.54381 0.54381 0.5478 0.5478 0.551558 0.551558 0.555076 0.555076 0.558346 0.558346 0.56136 0.56136 0.56411 0.56411 0.566589 0.566589 0.568789 0.568789 0.570702 0.570702 0.572322 0.572322 0.573642 0.573642 0.574654 0.574654 0.575352 0.575352 0.57573 0.57573 0.575781 0.575781 0.575499 0.575499 0.574879 0.574879 0.573915 0.573915 0.572601 0.572601 0.570934 0.570934 0.568908 0.568908 0.566519 0.566519 0.563763 0.563763 0.560636 0.560636 0.557135 0.557135 0.553256 0.553256 0.548998 0.548998 0.544357 0.544357 0.539332 0.539332 0.533921 0.533921 0.528122 0.528122 0.521936 0.521936 0.51536 0.51536 0.508396 0.508396 0.501043 0.501043 0.493303 0.493303 0.485175 0.485175 0.476663 0.476663 0.467767 0.467767 0.458489 0.458489 0.448833 0.448833 0.438802 0.438802 0.428399 0.428399 0.417629 0.417629 0.406494 0.406494 0.395001 0.395001 0.383154 0.383154 0.370959 0.370959 0.358422 0.358422 0.345549 0.345549 0.332347 0.332347 0.318823 0.318823 0.304985 0.304985 0.290839 0.290839 0.276396 0.276396 0.261663 0.261663 0.246649 0.246649 0.231363 0.231363 0.215815 0.215815 0.200016 0.200016 0.183974 0.183974 0.167701 0.167701 0.151208 0.151208 0.134506 0.134506 0.117605 0.117605 0.100518 0.100518 0.0832568 0.0832568 0.0658329 0.0658329 0.0482589 0.0482589 0.0305471 0.0305471 0.0127104 0.0127104 -0.00523856 -0.00523856 -0.0232867 -0.0232867 -0.0414209 -0.0414209 -0.059628 -0.059628 -0.0778945 -0.0778945 -0.0962071 -0.0962071 -0.114552 -0.114552 -0.132916 -0.132916 -0.151286 -0.151286 -0.169647 -0.169647 -0.187987 -0.187987 -0.20629 -0.20629 -0.224545 -0.224545 -0.242737 -0.242737 -0.260853 -0.260853 -0.278879 -0.278879 -0.296802 -0.296802 -0.314609 -0.314609 -0.332287 -0.332287 -0.349822 -0.349822 -0.367202 -0.367202 -0.384414 -0.384414 -0.401446 -0.401446 -0.418285 -0.418285 -0.43492 -0.43492 -0.451338 -0.451338 -0.467528 -0.467528 -0.483479 -0.483479 -0.499179 -0.499179 -0.514617 -0.514617 -0.529784 -0.529784 -0.544668 -0.544668 -0.55926 -0.55926 -0.573551 -0.573551 -0.587531 -0.587531 -0.60119 -0.60119 -0.614522 -0.614522 -0.627516 -0.627516 -0.640166 -0.640166 -0.652464 -0.652464 -0.664403 -0.664403 -0.675975 -0.675975 -0.687176 -0.687176 -0.697998 -0.697998 -0.708437 -0.708437 -0.718486 -0.718486 -0.728143 -0.728143 -0.737401 -0.737401 -0.746257 -0.746257 -0.754708 -0.754708 -0.76275 -0.76275 -0.770382 -0.770382 -0.7776 -0.7776 -0.784402 -0.784402 -0.790788 -0.790788 -0.796757 -0.796757 -0.802307 -0.802307 -0.807438 -0.807438 -0.812151 -0.812151 -0.816446 -0.816446 -0.820325 -0.820325 -0.823787 -0.823787 -0.826836 -0.826836 -0.829473 -0.829473 -0.831701 -0.831701 -0.833523 -0.833523 -0.834941 -0.834941 -0.835959 -0.835959 -0.836582 -0.836582 -0.836812 -0.836812 -0.836656 -0.836656 -0.836117 -0.836117 -0.8352 -0.8352 -0.833912 -0.833912 -0.832257 -0.832257 -0.830241 -0.830241 -0.827872 -0.827872 -0.825155 -0.825155 -0.822096 -0.822096 -0.818704 -0.818704 -0.814984 -0.814984 -0.810944 -0.810944 -0.806593 -0.806593 -0.801936 -0.801936 -0.796983 -0.796983 -0.791742 -0.791742 -0.786219 -0.786219 -0.780424 -0.780424 -0.774366 -0.774366 -0.768052 -0.768052 -0.761491 -0.761491 -0.754692 -0.754692 -0.747664 -0.747664 -0.740416 -0.740416 -0.732956 -0.732956 -0.725293 -0.725293 -0.717436 -0.717436 -0.709395 -0.709395 -0.701178 -0.701178 -0.692795 -0.692795 -0.684253 -0.684253 -0.675562 -0.675562 -0.666732 -0.666732 -0.65777 -0.65777 -0.648687 -0.648687 -0.639489 -0.639489 -0.630187 -0.630187 -0.620788 -0.620788 -0.611302 -0.611302 -0.601736 -0.601736 -0.5921 -0.5921 -0.5824 -0.5824 -0.572646 -0.572646 -0.562845 -0.562845 -0.553005 -0.553005 -0.543134 -0.543134 -0.533239 -0.533239 -0.523328 -0.523328 -0.513409 -0.513409 -0.503487 -0.503487 -0.49357 -0.49357 -0.483665 -0.483665 -0.473778 -0.473778 -0.463917 -0.463917 -0.454086 -0.454086 -0.444293 -0.444293 -0.434542 -0.434542 -0.424841 -0.424841 -0.415193 -0.415193 -0.405606 -0.405606 -0.396083 -0.396083 -0.38663 -0.38663 -0.377251 -0.377251 -0.367951 -0.367951 -0.358735 -0.358735 -0.349607 -0.349607 -0.340569 -0.340569 -0.331628 -0.331628 -0.322785 -0.322785 -0.314045 -0.314045 -0.305411 -0.305411 -0.296885 -0.296885 -0.288471 -0.288471 -0.280171 -0.280171 -0.271988 -0.271988 -0.263924 -0.263924 -0.255981 -0.255981 -0.248161 -0.248161 -0.240467 -0.240467 -0.232899 -0.232899 -0.225459 -0.225459 -0.218148 -0.218148 -0.210969 -0.210969 -0.20392 -0.20392 -0.197004 -0.197004 -0.190222 -0.190222 -0.183572 -0.183572 -0.177057 -0.177057 -0.170676 -0.170676 -0.16443 -0.16443 -0.158318 -0.158318 -0.152341 -0.152341 -0.146498 -0.146498 -0.140788 -0.140788 -0.135212 -0.135212 -0.129769 -0.129769 -0.124458 -0.124458 -0.119278 -0.119278 -0.114229 -0.114229 -0.109309 -0.109309 -0.104518 -0.104518 -0.0998538 -0.0998538 -0.0953161 -0.0953161 -0.0909033 -0.0909033 -0.0866141 -0.0866141 -0.082447 -0.082447 -0.0784006 -0.0784006 -0.0744733 -0.0744733 -0.0706636 -0.0706636 -0.0669697 -0.0669697 -0.0633901 -0.0633901 -0.059923 -0.059923 -0.0565666 -0.0565666 -0.0533191 -0.0533191 -0.0501787 -0.0501787 -0.0471435 -0.0471435 -0.0442115 -0.0442115 -0.0413809 -0.0413809 -0.0386498 -0.0386498 -0.0360161 -0.0360161 -0.0334779 -0.0334779 -0.0310332 -0.0310332 -0.02868 -0.02868 -0.0264163 -0.0264163 -0.02424 -0.02424 -0.0221493 -0.0221493 -0.020142 -0.020142 -0.0182162 -0.0182162 -0.0163698 -0.0163698 -0.0146009 -0.0146009 -0.0129075 -0.0129075 -0.0112876 -0.0112876 -0.0097392 -0.0097392 -0.00826043 -0.00826043 -0.00684934 -0.00684934 -0.00550399 -0.00550399 -0.00422252 -0.00422252 -0.00300303 -0.00300303 -0.00184368 -0.00184368 -0.000742644 -0.000742644 0.000301883 0.000301883 0.00129168 0.00129168 0.0022285 0.0022285 0.00311407 0.00311407 0.00395008 0.00395008 0.00473821 0.00473821 0.00548009 0.00548009 0.00617733 0.00617733 0.00683152 0.00683152 0.0074442 0.0074442 0.00801689 0.00801689 0.00855107 0.00855107 0.00904821 0.00904821 0.00950971 0.00950971 0.00993697 0.00993697 0.0103314 0.0103314 0.0106942 0.0106942 0.0110267 0.0110267 0.0113303 0.0113303 0.0116061 0.0116061 0.0118553 0.0118553 0.012079 0.012079 0.0122785 0.0122785 0.0124548 0.0124548 0.0126089 0.0126089 0.012742 0.012742 0.012855 0.012855 0.0129489 0.0129489 0.0130246 0.0130246 0.013083 0.013083 0.0131251 0.0131251 0.0131517 0.0131517 0.0131636 0.0131636 0.0131616 0.0131616 0.0131464 0.0131464 0.0131189 0.0131189 0.0130798 0.0130798 0.0130297 0.0130297 0.0129692 0.0129692 0.0128992 0.0128992 0.01282 0.01282 0.0127324 0.0127324 0.0126369 0.0126369 0.0125341 0.0125341 0.0124245 0.0124245 0.0123085 0.0123085 0.0121867 0.0121867 0.0120595 0.0120595 0.0119273 0.0119273 0.0117906 0.0117906 0.0116498 0.0116498 0.0115053 0.0115053 0.0113573 0.0113573 0.0112064 0.0112064 0.0110527 0.0110527 0.0108966 0.0108966 0.0107384 0.0107384 0.0105784 0.0105784 0.0104168 0.0104168 0.0102539 0.0102539 0.01009 0.01009 0.00992526 0.00992526 0.00975988 0.00975988 0.00959407 0.00959407 0.00942803 0.00942803 0.00926194 0.00926194 0.00909596 0.00909596 0.00893024 0.00893024 0.00876494 0.00876494 0.00860018 0.00860018 0.00843611 0.00843611 0.00827282 0.00827282 0.00811044 0.00811044 0.00794907 0.00794907 0.00778879 0.00778879 0.00762971 0.00762971 0.00747188 0.00747188 0.0073154 0.0073154 0.00716032 0.00716032 0.0070067 0.0070067 0.00685461 0.00685461 0.00670408 0.00670408 0.00655516 0.00655516 0.0064079 0.0064079 0.00626232 0.00626232 0.00611846 0.00611846 0.00597634 0.00597634 0.00583598 0.00583598 0.00569741 0.00569741 0.00556063 0.00556063 0.00542566 0.00542566 0.0052925 0.0052925 0.00516117 0.00516117 0.00503165 0.00503165 0.00490397 0.00490397 0.0047781 0.0047781 0.00465406 0.00465406 0.00453182 0.00453182 0.00441139 0.00441139 0.00429275 0.00429275 0.0041759 0.0041759 0.00406081 0.00406081 0.00394748 0.00394748 0.00383588 0.00383588 0.00372601 0.00372601 0.00361784 0.00361784 0.00351136 0.00351136 0.00340655 0.00340655 0.00330338 0.00330338 0.00320184 0.00320184 0.0031019 0.0031019 0.00300355 0.00300355 0.00290675 0.00290675 0.00281149 0.00281149 0.00271774 0.00271774 0.00262549 0.00262549 0.0025347 0.0025347 0.00244535 0.00244535 0.00235743 0.00235743 0.00227089 0.00227089 0.00218574 0.00218574 0.00210193 0.00210193 0.00201944 0.00201944 0.00193825 0.00193825 0.00185835 0.00185835 0.00177969 0.00177969 0.00170227 0.00170227 0.00162605 0.00162605 0.00155102 0.00155102 0.00147715 0.00147715 0.00140443 0.00140443 0.00133282 0.00133282 0.0012623 0.0012623 0.00119287 0.00119287 0.00112448 0.00112448 0.00105713 0.00105713 0.000990793 0.000990793 0.000925448 0.000925448 0.000861076 0.000861076 0.000797658 0.000797658 0.000735174 0.000735174 0.000673606 0.000673606 0.000612936 0.000612936 0.000553144 0.000553144 0.000494215 0.000494215 0.000436129 0.000436129 0.000378872 0.000378872 0.000322424 0.000322424 0.000266772 0.000266772 0.000211898 0.000211898 0.000157787 0.000157787 0.000104423 0.000104423 5.17924e-05 5.17924e-05 -1.20216e-07 -1.20216e-07 -5.1329e-05 -5.1329e-05 -0.000101848 -0.000101848 -0.000151691 -0.000151691 -0.000200871 -0.000200871 -0.000249401 -0.000249401 -0.000297294 -0.000297294 -0.000344563 -0.000344563 -0.00039122 -0.00039122 -0.000437276 -0.000437276 -0.000482743 -0.000482743 -0.000527633 -0.000527633 -0.000571957 -0.000571957 -0.000615725 -0.000615725 -0.000658949 -0.000658949 -0.000701639 -0.000701639 -0.000743804 -0.000743804 -0.000785455 -0.000785455 -0.000826602 -0.000826602 -0.000867253 -0.000867253 -0.000907419 -0.000907419 -0.000947108 -0.000947108 -0.00098633 -0.00098633 -0.00102509 -0.00102509 -0.0010634 -0.0010634 -0.00110127 -0.00110127 -0.00113871 -0.00113871 -0.00117572 -0.00117572 -0.00121231 -0.00121231 -0.00124849 -0.00124849 -0.00128426 -0.00128426 -0.00131964 -0.00131964 -0.00135463 -0.00135463 -0.00138924 -0.00138924 -0.00142347 -0.00142347 -0.00145733 -0.00145733 -0.00149083 -0.00149083 -0.00152397 -0.00152397 -0.00155676 -0.00155676 -0.00158921 -0.00158921 -0.00162131 -0.00162131 -0.00165309 -0.00165309 -0.00168453 -0.00168453 -0.00171566 -0.00171566 -0.00174646 -0.00174646 -0.00177695 -0.00177695 -0.00180714 -0.00180714 -0.00183702 -0.00183702 -0.0018666 -0.0018666 -0.00189589 -0.00189589 -0.00192488 -0.00192488 -0.00195359 -0.00195359 -0.00198201 -0.00198201 -0.00201015 -0.00201015 -0.00203802 -0.00203802 -0.00206561 -0.00206561 -0.00209293 -0.00209293 -0.00211998 -0.00211998 -0.00214676 -0.00214676 -0.00217328 -0.00217328 -0.00219954 -0.00219954 -0.00222553 -0.00222553 -0.00225126 -0.00225126 -0.00227674 -0.00227674 -0.00230196 -0.00230196 -0.00232692 -0.00232692 -0.00235162 -0.00235162 -0.00237607 -0.00237607 -0.00240026 -0.00240026 -0.00242419 -0.00242419 -0.00244786 -0.00244786 -0.00247127 -0.00247127 -0.00249442 -0.00249442 -0.00251731 -0.00251731 -0.00253993 -0.00253993 -0.00256229 -0.00256229 -0.00258437 -0.00258437 -0.00260618 -0.00260618 -0.00262772 -0.00262772 -0.00264898 -0.00264898 -0.00266995 -0.00266995 -0.00269064 -0.00269064 -0.00271104 -0.00271104 -0.00273114 -0.00273114 -0.00275094 -0.00275094 -0.00277043 -0.00277043 -0.00278961 -0.00278961 -0.