# vtk DataFile Version 3.0
#This file was generated by the deal.II library on 2020/9/1 at 14:40:13
ASCII
DATASET UNSTRUCTURED_GRID

POINTS 2048 double
1.5 0 0
1.59619 0 0
1.59619 0 0
1.69238 0 0
1.69238 0 0
1.78857 0 0
1.78857 0 0
1.88477 0 0
1.88477 0 0
1.98096 0 0
1.98096 0 0
2.07715 0 0
2.07715 0 0
2.17334 0 0
2.17334 0 0
2.26953 0 0
2.26953 0 0
2.36572 0 0
2.36572 0 0
2.46191 0 0
2.46191 0 0
2.55811 0 0
2.55811 0 0
2.6543 0 0
2.6543 0 0
2.75049 0 0
2.75049 0 0
2.84668 0 0
2.84668 0 0
2.94287 0 0
2.94287 0 0
3.03906 0 0
3.03906 0 0
3.13525 0 0
3.13525 0 0
3.23145 0 0
3.23145 0 0
3.32764 0 0
3.32764 0 0
3.42383 0 0
3.42383 0 0
3.52002 0 0
3.52002 0 0
3.61621 0 0
3.61621 0 0
3.7124 0 0
3.7124 0 0
3.80859 0 0
3.80859 0 0
3.90479 0 0
3.90479 0 0
4.00098 0 0
4.00098 0 0
4.09717 0 0
4.09717 0 0
4.19336 0 0
4.19336 0 0
4.28955 0 0
4.28955 0 0
4.38574 0 0
4.38574 0 0
4.48193 0 0
4.48193 0 0
4.57812 0 0
4.57812 0 0
4.67432 0 0
4.67432 0 0
4.77051 0 0
4.77051 0 0
4.8667 0 0
4.8667 0 0
4.96289 0 0
4.96289 0 0
5.05908 0 0
5.05908 0 0
5.15527 0 0
5.15527 0 0
5.25146 0 0
5.25146 0 0
5.34766 0 0
5.34766 0 0
5.44385 0 0
5.44385 0 0
5.54004 0 0
5.54004 0 0
5.63623 0 0
5.63623 0 0
5.73242 0 0
5.73242 0 0
5.82861 0 0
5.82861 0 0
5.9248 0 0
5.9248 0 0
6.021 0 0
6.021 0 0
6.11719 0 0
6.11719 0 0
6.21338 0 0
6.21338 0 0
6.30957 0 0
6.30957 0 0
6.40576 0 0
6.40576 0 0
6.50195 0 0
6.50195 0 0
6.59814 0 0
6.59814 0 0
6.69434 0 0
6.69434 0 0
6.79053 0 0
6.79053 0 0
6.88672 0 0
6.88672 0 0
6.98291 0 0
6.98291 0 0
7.0791 0 0
7.0791 0 0
7.17529 0 0
7.17529 0 0
7.27148 0 0
7.27148 0 0
7.36768 0 0
7.36768 0 0
7.46387 0 0
7.46387 0 0
7.56006 0 0
7.56006 0 0
7.65625 0 0
7.65625 0 0
7.75244 0 0
7.75244 0 0
7.84863 0 0
7.84863 0 0
7.94482 0 0
7.94482 0 0
8.04102 0 0
8.04102 0 0
8.13721 0 0
8.13721 0 0
8.2334 0 0
8.2334 0 0
8.32959 0 0
8.32959 0 0
8.42578 0 0
8.42578 0 0
8.52197 0 0
8.52197 0 0
8.61816 0 0
8.61816 0 0
8.71436 0 0
8.71436 0 0
8.81055 0 0
8.81055 0 0
8.90674 0 0
8.90674 0 0
9.00293 0 0
9.00293 0 0
9.09912 0 0
9.09912 0 0
9.19531 0 0
9.19531 0 0
9.2915 0 0
9.2915 0 0
9.3877 0 0
9.3877 0 0
9.48389 0 0
9.48389 0 0
9.58008 0 0
9.58008 0 0
9.67627 0 0
9.67627 0 0
9.77246 0 0
9.77246 0 0
9.86865 0 0
9.86865 0 0
9.96484 0 0
9.96484 0 0
10.061 0 0
10.061 0 0
10.1572 0 0
10.1572 0 0
10.2534 0 0
10.2534 0 0
10.3496 0 0
10.3496 0 0
10.4458 0 0
10.4458 0 0
10.542 0 0
10.542 0 0
10.6382 0 0
10.6382 0 0
10.7344 0 0
10.7344 0 0
10.8306 0 0
10.8306 0 0
10.9268 0 0
10.9268 0 0
11.0229 0 0
11.0229 0 0
11.1191 0 0
11.1191 0 0
11.2153 0 0
11.2153 0 0
11.3115 0 0
11.3115 0 0
11.4077 0 0
11.4077 0 0
11.5039 0 0
11.5039 0 0
11.6001 0 0
11.6001 0 0
11.6963 0 0
11.6963 0 0
11.7925 0 0
11.7925 0 0
11.8887 0 0
11.8887 0 0
11.9849 0 0
11.9849 0 0
12.0811 0 0
12.0811 0 0
12.1772 0 0
12.1772 0 0
12.2734 0 0
12.2734 0 0
12.3696 0 0
12.3696 0 0
12.4658 0 0
12.4658 0 0
12.562 0 0
12.562 0 0
12.6582 0 0
12.6582 0 0
12.7544 0 0
12.7544 0 0
12.8506 0 0
12.8506 0 0
12.9468 0 0
12.9468 0 0
13.043 0 0
13.043 0 0
13.1392 0 0
13.1392 0 0
13.2354 0 0
13.2354 0 0
13.3315 0 0
13.3315 0 0
13.4277 0 0
13.4277 0 0
13.5239 0 0
13.5239 0 0
13.6201 0 0
13.6201 0 0
13.7163 0 0
13.7163 0 0
13.8125 0 0
13.8125 0 0
13.9087 0 0
13.9087 0 0
14.0049 0 0
14.0049 0 0
14.1011 0 0
14.1011 0 0
14.1973 0 0
14.1973 0 0
14.2935 0 0
14.2935 0 0
14.3896 0 0
14.3896 0 0
14.4858 0 0
14.4858 0 0
14.582 0 0
14.582 0 0
14.6782 0 0
14.6782 0 0
14.7744 0 0
14.7744 0 0
14.8706 0 0
14.8706 0 0
14.9668 0 0
14.9668 0 0
15.063 0 0
15.063 0 0
15.1592 0 0
15.1592 0 0
15.2554 0 0
15.2554 0 0
15.3516 0 0
15.3516 0 0
15.4478 0 0
15.4478 0 0
15.5439 0 0
15.5439 0 0
15.6401 0 0
15.6401 0 0
15.7363 0 0
15.7363 0 0
15.8325 0 0
15.8325 0 0
15.9287 0 0
15.9287 0 0
16.0249 0 0
16.0249 0 0
16.1211 0 0
16.1211 0 0
16.2173 0 0
16.2173 0 0
16.3135 0 0
16.3135 0 0
16.4097 0 0
16.4097 0 0
16.5059 0 0
16.5059 0 0
16.6021 0 0
16.6021 0 0
16.6982 0 0
16.6982 0 0
16.7944 0 0
16.7944 0 0
16.8906 0 0
16.8906 0 0
16.9868 0 0
16.9868 0 0
17.083 0 0
17.083 0 0
17.1792 0 0
17.1792 0 0
17.2754 0 0
17.2754 0 0
17.3716 0 0
17.3716 0 0
17.4678 0 0
17.4678 0 0
17.564 0 0
17.564 0 0
17.6602 0 0
17.6602 0 0
17.7563 0 0
17.7563 0 0
17.8525 0 0
17.8525 0 0
17.9487 0 0
17.9487 0 0
18.0449 0 0
18.0449 0 0
18.1411 0 0
18.1411 0 0
18.2373 0 0
18.2373 0 0
18.3335 0 0
18.3335 0 0
18.4297 0 0
18.4297 0 0
18.5259 0 0
18.5259 0 0
18.6221 0 0
18.6221 0 0
18.7183 0 0
18.7183 0 0
18.8145 0 0
18.8145 0 0
18.9106 0 0
18.9106 0 0
19.0068 0 0
19.0068 0 0
19.103 0 0
19.103 0 0
19.1992 0 0
19.1992 0 0
19.2954 0 0
19.2954 0 0
19.3916 0 0
19.3916 0 0
19.4878 0 0
19.4878 0 0
19.584 0 0
19.584 0 0
19.6802 0 0
19.6802 0 0
19.7764 0 0
19.7764 0 0
19.8726 0 0
19.8726 0 0
19.9688 0 0
19.9688 0 0
20.0649 0 0
20.0649 0 0
20.1611 0 0
20.1611 0 0
20.2573 0 0
20.2573 0 0
20.3535 0 0
20.3535 0 0
20.4497 0 0
20.4497 0 0
20.5459 0 0
20.5459 0 0
20.6421 0 0
20.6421 0 0
20.7383 0 0
20.7383 0 0
20.8345 0 0
20.8345 0 0
20.9307 0 0
20.9307 0 0
21.0269 0 0
21.0269 0 0
21.123 0 0
21.123 0 0
21.2192 0 0
21.2192 0 0
21.3154 0 0
21.3154 0 0
21.4116 0 0
21.4116 0 0
21.5078 0 0
21.5078 0 0
21.604 0 0
21.604 0 0
21.7002 0 0
21.7002 0 0
21.7964 0 0
21.7964 0 0
21.8926 0 0
21.8926 0 0
21.9888 0 0
21.9888 0 0
22.085 0 0
22.085 0 0
22.1812 0 0
22.1812 0 0
22.2773 0 0
22.2773 0 0
22.3735 0 0
22.3735 0 0
22.4697 0 0
22.4697 0 0
22.5659 0 0
22.5659 0 0
22.6621 0 0
22.6621 0 0
22.7583 0 0
22.7583 0 0
22.8545 0 0
22.8545 0 0
22.9507 0 0
22.9507 0 0
23.0469 0 0
23.0469 0 0
23.1431 0 0
23.1431 0 0
23.2393 0 0
23.2393 0 0
23.3354 0 0
23.3354 0 0
23.4316 0 0
23.4316 0 0
23.5278 0 0
23.5278 0 0
23.624 0 0
23.624 0 0
23.7202 0 0
23.7202 0 0
23.8164 0 0
23.8164 0 0
23.9126 0 0
23.9126 0 0
24.0088 0 0
24.0088 0 0
24.105 0 0
24.105 0 0
24.2012 0 0
24.2012 0 0
24.2974 0 0
24.2974 0 0
24.3936 0 0
24.3936 0 0
24.4897 0 0
24.4897 0 0
24.5859 0 0
24.5859 0 0
24.6821 0 0
24.6821 0 0
24.7783 0 0
24.7783 0 0
24.8745 0 0
24.8745 0 0
24.9707 0 0
24.9707 0 0
25.0669 0 0
25.0669 0 0
25.1631 0 0
25.1631 0 0
25.2593 0 0
25.2593 0 0
25.3555 0 0
25.3555 0 0
25.4517 0 0
25.4517 0 0
25.5479 0 0
25.5479 0 0
25.644 0 0
25.644 0 0
25.7402 0 0
25.7402 0 0
25.8364 0 0
25.8364 0 0
25.9326 0 0
25.9326 0 0
26.0288 0 0
26.0288 0 0
26.125 0 0
26.125 0 0
26.2212 0 0
26.2212 0 0
26.3174 0 0
26.3174 0 0
26.4136 0 0
26.4136 0 0
26.5098 0 0
26.5098 0 0
26.606 0 0
26.606 0 0
26.7021 0 0
26.7021 0 0
26.7983 0 0
26.7983 0 0
26.8945 0 0
26.8945 0 0
26.9907 0 0
26.9907 0 0
27.0869 0 0
27.0869 0 0
27.1831 0 0
27.1831 0 0
27.2793 0 0
27.2793 0 0
27.3755 0 0
27.3755 0 0
27.4717 0 0
27.4717 0 0
27.5679 0 0
27.5679 0 0
27.6641 0 0
27.6641 0 0
27.7603 0 0
27.7603 0 0
27.8564 0 0
27.8564 0 0
27.9526 0 0
27.9526 0 0
28.0488 0 0
28.0488 0 0
28.145 0 0
28.145 0 0
28.2412 0 0
28.2412 0 0
28.3374 0 0
28.3374 0 0
28.4336 0 0
28.4336 0 0
28.5298 0 0
28.5298 0 0
28.626 0 0
28.626 0 0
28.7222 0 0
28.7222 0 0
28.8184 0 0
28.8184 0 0
28.9146 0 0
28.9146 0 0
29.0107 0 0
29.0107 0 0
29.1069 0 0
29.1069 0 0
29.2031 0 0
29.2031 0 0
29.2993 0 0
29.2993 0 0
29.3955 0 0
29.3955 0 0
29.4917 0 0
29.4917 0 0
29.5879 0 0
29.5879 0 0
29.6841 0 0
29.6841 0 0
29.7803 0 0
29.7803 0 0
29.8765 0 0
29.8765 0 0
29.9727 0 0
29.9727 0 0
30.0688 0 0
30.0688 0 0
30.165 0 0
30.165 0 0
30.2612 0 0
30.2612 0 0
30.3574 0 0
30.3574 0 0
30.4536 0 0
30.4536 0 0
30.5498 0 0
30.5498 0 0
30.646 0 0
30.646 0 0
30.7422 0 0
30.7422 0 0
30.8384 0 0
30.8384 0 0
30.9346 0 0
30.9346 0 0
31.0308 0 0
31.0308 0 0
31.127 0 0
31.127 0 0
31.2231 0 0
31.2231 0 0
31.3193 0 0
31.3193 0 0
31.4155 0 0
31.4155 0 0
31.5117 0 0
31.5117 0 0
31.6079 0 0
31.6079 0 0
31.7041 0 0
31.7041 0 0
31.8003 0 0
31.8003 0 0
31.8965 0 0
31.8965 0 0
31.9927 0 0
31.9927 0 0
32.0889 0 0
32.0889 0 0
32.1851 0 0
32.1851 0 0
32.2812 0 0
32.2812 0 0
32.3774 0 0
32.3774 0 0
32.4736 0 0
32.4736 0 0
32.5698 0 0
32.5698 0 0
32.666 0 0
32.666 0 0
32.7622 0 0
32.7622 0 0
32.8584 0 0
32.8584 0 0
32.9546 0 0
32.9546 0 0
33.0508 0 0
33.0508 0 0
33.147 0 0
33.147 0 0
33.2432 0 0
33.2432 0 0
33.3394 0 0
33.3394 0 0
33.4355 0 0
33.4355 0 0
33.5317 0 0
33.5317 0 0
33.6279 0 0
33.6279 0 0
33.7241 0 0
33.7241 0 0
33.8203 0 0
33.8203 0 0
33.9165 0 0
33.9165 0 0
34.0127 0 0
34.0127 0 0
34.1089 0 0
34.1089 0 0
34.2051 0 0
34.2051 0 0
34.3013 0 0
34.3013 0 0
34.3975 0 0
34.3975 0 0
34.4937 0 0
34.4937 0 0
34.5898 0 0
34.5898 0 0
34.686 0 0
34.686 0 0
34.7822 0 0
34.7822 0 0
34.8784 0 0
34.8784 0 0
34.9746 0 0
34.9746 0 0
35.0708 0 0
35.0708 0 0
35.167 0 0
35.167 0 0
35.2632 0 0
35.2632 0 0
35.3594 0 0
35.3594 0 0
35.4556 0 0
35.4556 0 0
35.5518 0 0
35.5518 0 0
35.6479 0 0
35.6479 0 0
35.7441 0 0
35.7441 0 0
35.8403 0 0
35.8403 0 0
35.9365 0 0
35.9365 0 0
36.0327 0 0
36.0327 0 0
36.1289 0 0
36.1289 0 0
36.2251 0 0
36.2251 0 0
36.3213 0 0
36.3213 0 0
36.4175 0 0
36.4175 0 0
36.5137 0 0
36.5137 0 0
36.6099 0 0
36.6099 0 0
36.7061 0 0
36.7061 0 0
36.8022 0 0
36.8022 0 0
36.8984 0 0
36.8984 0 0
36.9946 0 0
36.9946 0 0
37.0908 0 0
37.0908 0 0
37.187 0 0
37.187 0 0
37.2832 0 0
37.2832 0 0
37.3794 0 0
37.3794 0 0
37.4756 0 0
37.4756 0 0
37.5718 0 0
37.5718 0 0
37.668 0 0
37.668 0 0
37.7642 0 0
37.7642 0 0
37.8604 0 0
37.8604 0 0
37.9565 0 0
37.9565 0 0
38.0527 0 0
38.0527 0 0
38.1489 0 0
38.1489 0 0
38.2451 0 0
38.2451 0 0
38.3413 0 0
38.3413 0 0
38.4375 0 0
38.4375 0 0
38.5337 0 0
38.5337 0 0
38.6299 0 0
38.6299 0 0
38.7261 0 0
38.7261 0 0
38.8223 0 0
38.8223 0 0
38.9185 0 0
38.9185 0 0
39.0146 0 0
39.0146 0 0
39.1108 0 0
39.1108 0 0
39.207 0 0
39.207 0 0
39.3032 0 0
39.3032 0 0
39.3994 0 0
39.3994 0 0
39.4956 0 0
39.4956 0 0
39.5918 0 0
39.5918 0 0
39.688 0 0
39.688 0 0
39.7842 0 0
39.7842 0 0
39.8804 0 0
39.8804 0 0
39.9766 0 0
39.9766 0 0
40.0728 0 0
40.0728 0 0
40.1689 0 0
40.1689 0 0
40.2651 0 0
40.2651 0 0
40.3613 0 0
40.3613 0 0
40.4575 0 0
40.4575 0 0
40.5537 0 0
40.5537 0 0
40.6499 0 0
40.6499 0 0
40.7461 0 0
40.7461 0 0
40.8423 0 0
40.8423 0 0
40.9385 0 0
40.9385 0 0
41.0347 0 0
41.0347 0 0
41.1309 0 0
41.1309 0 0
41.2271 0 0
41.2271 0 0
[...]
POINT_DATA 2048
SCALARS solution_0 double 1
LOOKUP_TABLE default
0.0950076 0.094847 0.094847 0.0945459 0.0945459 0.0941415 0.0941415 0.0936599 0.0936599 0.0931201 0.0931201 0.0925359 0.0925359 0.0919177 0.0919177 0.0912735 0.0912735 0.0906093 0.0906093 0.0899297 0.0899297 0.0892384 0.0892384 0.0885382 0.0885382 0.0878314 0.0878314 0.0871199 0.0871199 0.0864049 0.0864049 0.0856878 0.0856878 0.0849694 0.0849694 0.0842503 0.0842503 0.0835314 0.0835314 0.0828129 0.0828129 0.0820953 0.0820953 0.0813789 0.0813789 0.0806641 0.0806641 0.0799509 0.0799509 0.0792396 0.0792396 0.0785303 0.0785303 0.0778232 0.0778232 0.0771184 0.0771184 0.076416 0.076416 0.0757162 0.0757162 0.0750189 0.0750189 0.0743245 0.0743245 0.0736329 0.0736329 0.0729442 0.0729442 0.0722586 0.0722586 0.0715762 0.0715762 0.070897 0.070897 0.0702213 0.0702213 0.069549 0.069549 0.0688803 0.0688803 0.0682152 0.0682152 0.0675538 0.0675538 0.0668961 0.0668961 0.066242 0.066242 0.0655914 0.0655914 0.0649442 0.0649442 0.0643002 0.0643002 0.0636589 0.0636589 0.06302 0.06302 0.0623829 0.0623829 0.0617468 0.0617468 0.0611108 0.0611108 0.0604738 0.0604738 0.0598343 0.0598343 0.0591908 0.0591908 0.0585414 0.0585414 0.0578836 0.0578836 0.057215 0.057215 0.0565324 0.0565324 0.0558325 0.0558325 0.0551113 0.0551113 0.0543643 0.0543643 0.0535865 0.0535865 0.0527725 0.0527725 0.0519159 0.0519159 0.0510101 0.0510101 0.0500475 0.0500475 0.04902 0.04902 0.0479187 0.0479187 0.046734 0.046734 0.0454555 0.0454555 0.0440723 0.0440723 0.0425726 0.0425726 0.0409436 0.0409436 0.0391722 0.0391722 0.0372445 0.0372445 0.0351456 0.0351456 0.0328602 0.0328602 0.0303724 0.0303724 0.0276656 0.0276656 0.0247225 0.0247225 0.0215254 0.0215254 0.0180561 0.0180561 0.014296 0.014296 0.0102258 0.0102258 0.00582613 0.00582613 0.00107706 0.00107706 -0.00404162 -0.00404162 -0.00955045 -0.00955045 -0.0154702 -0.0154702 -0.0218221 -0.0218221 -0.0286273 -0.0286273 -0.0359077 -0.0359077 -0.0436849 -0.0436849 -0.0519812 -0.0519812 -0.0608189 -0.0608189 -0.0702205 -0.0702205 -0.0802088 -0.0802088 -0.0908066 -0.0908066 -0.102037 -0.102037 -0.113922 -0.113922 -0.126486 -0.126486 -0.13975 -0.13975 -0.153735 -0.153735 -0.168464 -0.168464 -0.183955 -0.183955 -0.200227 -0.200227 -0.217296 -0.217296 -0.235174 -0.235174 -0.253872 -0.253872 -0.273397 -0.273397 -0.293749 -0.293749 -0.314925 -0.314925 -0.336915 -0.336915 -0.359702 -0.359702 -0.38326 -0.38326 -0.407556 -0.407556 -0.432545 -0.432545 -0.458175 -0.458175 -0.484381 -0.484381 -0.511087 -0.511087 -0.538204 -0.538204 -0.565633 -0.565633 -0.593261 -0.593261 -0.620966 -0.620966 -0.648611 -0.648611 -0.676049 -0.676049 -0.703125 -0.703125 -0.729671 -0.729671 -0.755514 -0.755514 -0.780473 -0.780473 -0.80436 -0.80436 -0.826986 -0.826986 -0.848158 -0.848158 -0.867682 -0.867682 -0.885366 -0.885366 -0.901019 -0.901019 -0.914454 -0.914454 -0.92549 -0.92549 -0.933952 -0.933952 -0.939672 -0.939672 -0.942488 -0.942488 -0.942248 -0.942248 -0.938808 -0.938808 -0.932033 -0.932033 -0.921796 -0.921796 -0.907978 -0.907978 -0.890467 -0.890467 -0.869161 -0.869161 -0.843961 -0.843961 -0.814778 -0.814778 -0.781525 -0.781525 -0.744124 -0.744124 -0.702501 -0.702501 -0.656587 -0.656587 -0.606321 -0.606321 -0.551648 -0.551648 -0.492518 -0.492518 -0.428896 -0.428896 -0.360752 -0.360752 -0.288073 -0.288073 -0.210858 -0.210858 -0.129127 -0.129127 -0.0429175 -0.0429175 0.0477079 0.0477079 0.142661 0.142661 0.241824 0.241824 0.345049 0.345049 0.45215 0.45215 0.562907 0.562907 0.67706 0.67706 0.794309 0.794309 0.914313 0.914313 1.03669 1.03669 1.16101 1.16101 1.28681 1.28681 1.4136 1.4136 1.54082 1.54082 1.6679 1.6679 1.79426 1.79426 1.91925 1.91925 2.04224 2.04224 2.16257 2.16257 2.27958 2.27958 2.3926 2.3926 2.50099 2.50099 2.60409 2.60409 2.70129 2.70129 2.79201 2.79201 2.8757 2.8757 2.95183 2.95183 3.01996 3.01996 3.07968 3.07968 3.13065 3.13065 3.17258 3.17258 3.20527 3.20527 3.22856 3.22856 3.24239 3.24239 3.24677 3.24677 3.24175 3.24175 3.22749 3.22749 3.2042 3.2042 3.17216 3.17216 3.13169 3.13169 3.08321 3.08321 3.02715 3.02715 2.964 2.964 2.8943 2.8943 2.81862 2.81862 2.73753 2.73753 2.65167 2.65167 2.56164 2.56164 2.46807 2.46807 2.37161 2.37161 2.27286 2.27286 2.17244 2.17244 2.07094 2.07094 1.96892 1.96892 1.86694 1.86694 1.7655 1.7655 1.66508 1.66508 1.56611 1.56611 1.46901 1.46901 1.37413 1.37413 1.2818 1.2818 1.19229 1.19229 1.10585 1.10585 1.02268 1.02268 0.942932 0.942932 0.866738 0.866738 0.794187 0.794187 0.725333 0.725333 0.660202 0.660202 0.59879 0.59879 0.541068 0.541068 0.486983 0.486983 0.436462 0.436462 0.389413 0.389413 0.34573 0.34573 0.305293 0.305293 0.267971 0.267971 0.233628 0.233628 0.202117 0.202117 0.173292 0.173292 0.147001 0.147001 0.123091 0.123091 0.101414 0.101414 0.0818189 0.0818189 0.0641609 0.0641609 0.048298 0.048298 0.0340934 0.0340934 0.0214153 0.0214153 0.0101383 0.0101383 0.000142985 0.000142985 -0.00868347 -0.00868347 -0.0164472 -0.0164472 -0.0232477 -0.0232477 -0.0291776 -0.0291776 -0.0343232 -0.0343232 -0.038764 -0.038764 -0.0425736 -0.0425736 -0.0458193 -0.0458193 -0.0485629 -0.0485629 -0.0508607 -0.0508607 -0.0527636 -0.0527636 -0.0543181 -0.0543181 -0.0555659 -0.0555659 -0.0565446 -0.0565446 -0.057288 -0.057288 -0.0578261 -0.0578261 -0.058186 -0.058186 -0.0583914 -0.0583914 -0.0584636 -0.0584636 -0.0584214 -0.0584214 -0.0582811 -0.0582811 -0.0580574 -0.0580574 -0.057763 -0.057763 -0.0574089 -0.0574089 -0.0570048 -0.0570048 -0.0565592 -0.0565592 -0.0560793 -0.0560793 -0.0555715 -0.0555715 -0.0550411 -0.0550411 -0.0544928 -0.0544928 -0.0539307 -0.0539307 -0.053358 -0.053358 -0.0527778 -0.0527778 -0.0521924 -0.0521924 -0.0516039 -0.0516039 -0.0510141 -0.0510141 -0.0504245 -0.0504245 -0.0498362 -0.0498362 -0.0492503 -0.0492503 -0.0486676 -0.0486676 -0.0480887 -0.0480887 -0.0475143 -0.0475143 -0.0469447 -0.0469447 -0.0463804 -0.0463804 -0.0458216 -0.0458216 -0.0452685 -0.0452685 -0.0447212 -0.0447212 -0.0441799 -0.0441799 -0.0436447 -0.0436447 -0.0431155 -0.0431155 -0.0425924 -0.0425924 -0.0420755 -0.0420755 -0.0415646 -0.0415646 -0.0410598 -0.0410598 -0.040561 -0.040561 -0.0400681 -0.0400681 -0.0395811 -0.0395811 -0.0390999 -0.0390999 -0.0386244 -0.0386244 -0.0381547 -0.0381547 -0.0376905 -0.0376905 -0.0372318 -0.0372318 -0.0367786 -0.0367786 -0.0363308 -0.0363308 -0.0358882 -0.0358882 -0.0354508 -0.0354508 -0.0350186 -0.0350186 -0.0345914 -0.0345914 -0.0341692 -0.0341692 -0.0337518 -0.0337518 -0.0333393 -0.0333393 -0.0329316 -0.0329316 -0.0325285 -0.0325285 -0.03213 -0.03213 -0.0317361 -0.0317361 -0.0313467 -0.0313467 -0.0309616 -0.0309616 -0.0305809 -0.0305809 -0.0302045 -0.0302045 -0.0298322 -0.0298322 -0.0294641 -0.0294641 -0.0291001 -0.0291001 -0.0287401 -0.0287401 -0.0283841 -0.0283841 -0.028032 -0.028032 -0.0276838 -0.0276838 -0.0273393 -0.0273393 -0.0269986 -0.0269986 -0.0266616 -0.0266616 -0.0263282 -0.0263282 -0.0259983 -0.0259983 -0.0256721 -0.0256721 -0.0253492 -0.0253492 -0.0250299 -0.0250299 -0.0247139 -0.0247139 -0.0244012 -0.0244012 -0.0240919 -0.0240919 -0.0237857 -0.0237857 -0.0234828 -0.0234828 -0.0231831 -0.0231831 -0.0228864 -0.0228864 -0.0225928 -0.0225928 -0.0223023 -0.0223023 -0.0220147 -0.0220147 -0.0217301 -0.0217301 -0.0214484 -0.0214484 -0.0211695 -0.0211695 -0.0208935 -0.0208935 -0.0206203 -0.0206203 -0.0203498 -0.0203498 -0.0200821 -0.0200821 -0.019817 -0.019817 -0.0195546 -0.0195546 -0.0192948 -0.0192948 -0.0190376 -0.0190376 -0.0187829 -0.0187829 -0.0185308 -0.0185308 -0.0182811 -0.0182811 -0.0180338 -0.0180338 -0.017789 -0.017789 -0.0175466 -0.0175466 -0.0173065 -0.0173065 -0.0170688 -0.0170688 -0.0168333 -0.0168333 -0.0166001 -0.0166001 -0.0163692 -0.0163692 -0.0161405 -0.0161405 -0.0159139 -0.0159139 -0.0156895 -0.0156895 -0.0154673 -0.0154673 -0.0152471 -0.0152471 -0.015029 -0.015029 -0.014813 -0.014813 -0.014599 -0.014599 -0.0143871 -0.0143871 -0.014177 -0.014177 -0.013969 -0.013969 -0.0137629 -0.0137629 -0.0135587 -0.0135587 -0.0133563 -0.0133563 -0.0131559 -0.0131559 -0.0129573 -0.0129573 -0.0127605 -0.0127605 -0.0125655 -0.0125655 -0.0123722 -0.0123722 -0.0121808 -0.0121808 -0.011991 -0.011991 -0.011803 -0.011803 -0.0116167 -0.0116167 -0.0114321 -0.0114321 -0.0112491 -0.0112491 -0.0110677 -0.0110677 -0.010888 -0.010888 -0.0107099 -0.0107099 -0.0105333 -0.0105333 -0.0103583 -0.0103583 -0.0101849 -0.0101849 -0.010013 -0.010013 -0.0098426 -0.0098426 -0.0096737 -0.0096737 -0.00950628 -0.00950628 -0.00934032 -0.00934032 -0.0091758 -0.0091758 -0.00901272 -0.00901272 -0.00885104 -0.00885104 -0.00869077 -0.00869077 -0.00853188 -0.00853188 -0.00837436 -0.00837436 -0.00821819 -0.00821819 -0.00806335 -0.00806335 -0.00790984 -0.00790984 -0.00775764 -0.00775764 -0.00760673 -0.00760673 -0.00745711 -0.00745711 -0.00730875 -0.00730875 -0.00716164 -0.00716164 -0.00701578 -0.00701578 -0.00687114 -0.00687114 -0.00672772 -0.00672772 -0.00658549 -0.00658549 -0.00644446 -0.00644446 -0.0063046 -0.0063046 -0.0061659 -0.0061659 -0.00602836 -0.00602836 -0.00589195 -0.00589195 -0.00575667 -0.00575667 -0.00562251 -0.00562251 -0.00548945 -0.00548945 -0.00535748 -0.00535748 -0.0052266 -0.0052266 -0.00509678 -0.00509678 -0.00496803 -0.00496803 -0.00484032 -0.00484032 -0.00471365 -0.00471365 -0.00458801 -0.00458801 -0.00446339 -0.00446339 -0.00433977 -0.00433977 -0.00421714 -0.00421714 -0.00409551 -0.00409551 -0.00397485 -0.00397485 -0.00385515 -0.00385515 -0.00373642 -0.00373642 -0.00361863 -0.00361863 -0.00350177 -0.00350177 -0.00338585 -0.00338585 -0.00327085 -0.00327085 -0.00315675 -0.00315675 -0.00304356 -0.00304356 -0.00293126 -0.00293126 -0.00281985 -0.00281985 -0.00270931 -0.00270931 -0.00259963 -0.00259963 -0.00249082 -0.00249082 -0.00238285 -0.00238285 -0.00227573 -0.00227573 -0.00216944 -0.00216944 -0.00206397 -0.00206397 -0.00195933 -0.00195933 -0.00185549 -0.00185549 -0.00175246 -0.00175246 -0.00165021 -0.00165021 -0.00154876 -0.00154876 -0.00144809 -0.00144809 -0.00134818 -0.00134818 -0.00124905 -0.00124905 -0.00115067 -0.00115067 -0.00105304 -0.00105304 -0.000956149 -0.000956149 -0.000859999 -0.000859999 -0.000764579 -0.000764579 -0.000669881 -0.000669881 -0.000575899 -0.000575899 -0.000482627 -0.000482627 -0.000390057 -0.000390057 -0.000298184 -0.000298184 -0.000207 -0.000207 -0.000116501 -0.000116501 -2.66785e-05 -2.66785e-05 6.24727e-05 6.24727e-05 0.000150959 0.000150959 0.000238786 0.000238786 0.00032596 0.00032596 0.000412487 0.000412487 0.000498373 0.000498373 0.000583623 0.000583623 0.000668244 0.000668244 0.00075224 0.00075224 0.000835619 0.000835619 0.000918384 0.000918384 0.00100054 0.00100054 0.0010821 0.0010821 0.00116306 0.00116306 0.00124342 0.00124342 0.0013232 0.0013232 0.0014024 0.0014024 0.00148103 0.00148103 0.00155908 0.00155908 0.00163657 0.00163657 0.00171349 0.00171349 0.00178986 0.00178986 0.00186568 0.00186568 0.00194096 0.00194096 0.00201569 0.00201569 0.00208988 0.00208988 0.00216354 0.00216354 0.00223668 0.00223668 0.00230929 0.00230929 0.00238138 0.00238138 0.00245296 0.00245296 0.00252403 0.00252403 0.00259459 0.00259459 0.00266465 0.00266465 0.00273421 0.00273421 0.00280329 0.00280329 0.00287187 0.00287187 0.00293997 0.00293997 0.00300759 0.00300759 0.00307473 0.00307473 0.0031414 0.0031414 0.0032076 0.0032076 0.00327334 0.00327334 0.00333861 0.00333861 0.00340343 0.00340343 0.0034678 0.0034678 0.00353171 0.00353171 0.00359519 0.00359519 0.00365822 0.00365822 0.00372081 0.00372081 0.00378296 0.00378296 0.00384469 0.00384469 0.00390599 0.00390599 0.00396686 0.00396686 0.00402732 0.00402732 0.00408736 0.00408736 0.00414698 0.00414698 0.00420619 0.00420619 0.004265 0.004265 0.0043234 0.0043234 0.0043814 0.0043814 0.00443901 0.00443901 0.00449622 0.00449622 0.00455304 0.00455304 0.00460947 0.00460947 0.00466552 0.00466552 0.00472119 0.00472119 0.00477647 0.00477647 0.00483138 0.00483138 0.00488592 0.00488592 0.00494009 0.00494009 0.0049939 0.0049939 0.00504734 0.00504734 0.00510042 0.00510042 0.00515314 0.00515314 0.0052055 0.0052055 0.00525751 0.00525751 0.00530918 0.00530918 0.00536049 0.00536049 0.00541147 0.00541147 0.0054621 0.0054621 0.00551239 0.00551239 0.00556234 0.00556234 0.00561197 0.00561197 0.00566126 0.00566126 0.00571022 0.00571022 0.00575885 0.00575885 0.00580717 0.00580717 0.00585516 0.00585516 0.00590283 0.00590283 0.00595019 0.00595019 0.00599723 0.00599723 0.00604396 0.00604396 0.00609038 0.00609038 0.0061365 0.0061365 0.00618231 0.00618231 0.00622782 0.00622782 0.00627303 0.00627303 0.00631794 0.00631794 0.00636256 0.00636256 0.00640688 0.00640688 0.00645091 0.00645091 0.00649466 0.00649466 0.00653812 0.00653812 0.00658129 0.00658129 0.00662418 0.00662418 0.00666679 0.00666679 0.00670913 0.00670913 0.00675118 0.00675118 0.00679297 0.00679297 0.00683448 0.00683448 0.00687572 0.00687572 0.00691669 0.00691669 0.0069574 0.0069574 0.00699784 0.00699784 0.00703803 0.00703803 0.00707795 0.00707795 0.00711761 0.00711761 0.00715702 0.00715702 0.00719617 0.00719617 0.00723507 0.00723507 0.00727372 0.00727372 0.00731212 0.00731212 0.00735027 0.00735027 0.00738818 0.00738818 0.00742584 0.00742584 0.00746326 0.00746326 0.00750045 0.00750045 0.00753739 0.00753739 0.00757409 0.00757409 0.00761057 0.00761057 0.0076468 0.0076468 0.00768281 0.00768281 0.00771859 0.00771859 0.00775413 0.00775413 0.00778946 0.00778946 0.00782455 0.00782455 0.00785942 0.00785942 0.00789408 0.00789408 0.00792851 0.00792851 0.00796272 0.00796272 0.00799671 0.00799671 0.00803049 0.00803049 0.00806405 0.00806405 0.0080974 0.0080974 0.00813054 0.00813054 0.00816347 0.00816347 0.0081962 0.0081962 0.00822871 0.00822871 0.00826102 0.00826102 0.00829312 0.00829312 0.00832503 0.00832503 0.00835673 0.00835673 0.00838823 0.00838823 0.00841953 0.00841953 0.00845064 0.00845064 0.00848155 0.00848155 0.00851227 0.00851227 0.00854279 0.00854279 0.00857312 0.00857312 0.00860326 0.00860326 0.00863321 0.00863321 0.00866298 0.00866298 0.00869255 0.00869255 0.00872195 0.00872195 0.00875115 0.00875115 0.00878018 0.00878018 0.00880902 0.00880902 0.00883769 0.00883769 0.00886617 0.00886617 0.00889448 0.00889448 0.00892261 0.00892261 0.00895056 0.00895056 0.00897834 0.00897834 0.00900595 0.00900595 0.00903338 0.00903338 0.00906065 0.00906065 0.00908774 0.00908774 0.00911467 0.00911467 0.00914142 0.00914142 0.00916802 0.00916802 0.00919444 0.00919444 0.0092207 0.0092207 0.0092468 0.0092468 0.00927274 0.00927274 0.00929852 0.00929852 0.00932414 0.00932414 0.00934959 0.00934959 0.00937489 0.00937489 0.00940004 0.00940004 0.00942503 0.00942503 0.00944986 0.00944986 0.00947454 0.00947454 0.00949907 0.00949907 0.00952344 0.00952344 0.00954767 0.00954767 0.00957174 0.00957174 0.00959567 0.00959567 0.00961945 0.00961945 0.00964308 0.00964308 0.00966656 0.00966656 0.0096899 0.0096899 0.0097131 0.0097131 0.00973616 0.00973616 0.00975907 0.00975907 0.00978184 0.00978184 0.00980447 0.00980447 0.00982696 0.00982696 0.00984931 0.00984931 0.00987153 0.00987153 0.00989361 0.00989361 0.00991555 0.00991555 0.00993736 0.00993736 0.00995903 0.00995903 0.00998057 0.00998057 0.010002 0.010002 0.0100233 0.0100233 0.0100444 0.0100444 0.0100654 0.0100654 0.0100863 0.0100863 0.0101071 0.0101071 0.0101277 0.0101277 0.0101482 0.0101482 0.0101686 0.0101686 0.0101888 0.0101888 0.010209 0.010209 0.010229 0.010229 0.0102488 0.0102488 0.0102686 0.0102686 0.0102882 0.0102882 0.0103078 0.0103078 0.0103272 0.0103272 0.0103464 0.0103464 0.0103656 0.0103656 0.0103847 0.0103847 0.0104036 0.0104036 0.0104224 0.0104224 0.0104411 0.0104411 0.0104597 0.0104597 0.0104781 0.0104781 0.0104965 0.0104965 0.0105147 0.0105147 0.0105329 0.0105329 0.0105509 0.0105509 0.0105688 0.0105688 0.0105866 0.0105866 0.0106043 0.0106043 0.0106219 0.0106219 0.0106393 0.0106393 0.0106567 0.0106567 0.010674 0.010674 0.0106911 0.0106911 0.0107082 0.0107082 0.0107251 0.0107251 0.010742 0.010742 0.0107587 0.0107587 0.0107753 0.0107753 0.0107919 0.0107919 0.0108083 0.0108083 0.0108246 0.0108246 0.0108409 0.0108409 0.010857 0.010857 0.010873 0.010873 0.0108889 0.0108889 0.0109048 0.0109048 0.0109205 0.0109205 0.0109362 0.0109362 0.0109517 0.0109517 0.0109672 0.0109672 0.0109825 0.0109825 0.0109978 0.0109978 0.0110129 0.0110129 0.011028 0.011028 0.011043 0.011043 0.0110579 0.0110579 0.0110727 0.0110727 0.0110874 0.0110874 0.011102 0.011102 0.0111165 0.0111165 0.011131 0.011131 0.0111453 0.0111453 0.0111596 0.0111596 0.0111737 0.0111737 0.0111878 0.0111878 0.0112018 0.0112018 0.0112157 0.0112157 0.0112295 0.0112295 0.0112433 0.0112433 0.0112569 0.0112569 0.0112705 0.0112705 0.0112839 0.0112839 0.0112973 0.0112973 0.0113106 0.0113106 0.0113238 0.0113238 0.011337 0.011337 0.01135 0.01135 0.0113629 0.0113629 0.0113758 0.0113758 0.0113886 0.0113886 0.0114012 0.0114012 0.0114138 0.0114138 0.0114263 0.0114263 0.0114387 0.0114387 0.0114509 0.0114509 0.0114631 0.0114631 0.0114751 0.0114751 0.011487 0.011487 0.0114988 0.0114988 0.0115105 0.0115105 0.011522 0.011522 0.0115333 0.0115333 0.0115445 0.0115445 0.0115555 0.0115555 0.0115663 0.0115663 0.0115768 0.0115768 0.0115871 0.0115871 0.0115972 0.0115972 0.0116069 0.0116069 0.0116163 0.0116163 0.0116253 0.0116253 0.011634 0.011634 0.0116422 0.0116422 0.0116499 0.0116499 0.011657 0.011657 0.0116636 0.0116636 0.0116694 0.0116694 0.0116746 0.0116746 0.0116789 0.0116789 0.0116823 0.0116823 0.0116848 0.0116848 0.0116862 0.0116862 0.0116864 0.0116864 0.0116853 0.0116853 0.0116829 0.0116829 0.0116789 0.0116789 0.0116733 0.0116733 0.011666 0.011666 0.0116568 0.0116568 0.0116456 0.0116456 0.0116322 0.0116322 0.0116165 0.0116165 0.0115984 0.0115984 0.0115777 0.0115777 0.0115543 0.0115543 0.0115281 0.0115281 0.0114988 0.0114988 0.0114665 0.0114665 0.0114309 0.0114309 0.0113919 0.0113919 0.0113496 0.0113496 0.0113036 0.0113036 0.0112541 0.0112541 0.0112009 0.0112009 0.0111441 0.0111441 0.0110834 0.0110834 0.011019 0.011019 0.0109509 0.0109509 0.0108791 0.0108791 0.0108037 0.0108037 0.0107247 0.0107247 0.0106423 0.0106423 0.0105565 0.0105565 0.0104675 0.0104675 0.0103755 0.0103755 0.0102807 0.0102807 0.0101832 0.0101832 0.0100833 0.0100833 0.00998122 0.00998122 0.0098772 0.0098772 0.00977151 0.00977151 0.00966442 0.00966442 0.00955619 0.00955619 0.00944712 0.00944712 0.00933748 0.00933748 0.00922755 0.00922755 0.00911761 0.00911761 0.00900794 0.00900794 0.0088988 0.0088988 0.00879044 0.00879044 0.0086831 0.0086831 0.00857703 0.00857703 0.00847242 0.00847242 0.00836948 0.00836948 0.0082684 0.0082684 0.00816934 0.00816934 0.00807245 0.00807245 0.00797785 0.00797785 0.00788565 0.00788565 0.00779596 0.00779596 0.00770885 0.00770885 0.00762437 0.00762437 0.00754257 0.00754257 0.00746348 0.00746348 0.00738711 0.00738711 0.00731348 0.00731348 0.00724255 0.00724255 0.00717432 0.00717432 0.00710876 0.00710876 0.00704583 0.00704583 0.00698548 0.00698548 0.00692766 0.00692766 0.00687231 0.00687231 0.00681938 0.00681938 0.0067688 0.0067688 0.0067205 0.0067205 0.00667441 0.00667441 0.00663046 0.00663046 0.00658858 0.00658858 0.0065487 0.0065487 0.00651074 0.00651074 0.00647464 0.00647464 0.00644032 0.00644032 0.00640771 0.00640771 0.00637674 0.00637674 0.00634735 0.00634735 0.00631946 0.00631946 0.00629302 0.00629302 0.00626795 0.00626795 0.00624419 0.00624419 0.00622169 0.00622169 0.00620038 0.00620038 0.0061802 0.0061802 0.00616111 0.00616111 0.00614304 0.00614304 0.00612593 0.00612593 0.00610975 0.00610975 0.00609444 0.00609444 0.00607995 0.00607995 0.00606624 0.00606624 0.00605326 0.00605326 0.00604098 0.00604098 0.00602934 0.00602934 0.00601831 0.00601831 0.00600785 0.00600785 0.00599794 0.00599794 0.00598853 0.00598853 0.00597959 0.00597959 0.00597109 0.00597109 0.00596301 0.00596301 0.00595532 0.00595532 0.00594798 0.00594798 0.00594099 0.00594099 0.00593431 0.00593431 0.00592793 0.00592793 0.00592182 0.00592182 0.00591597 0.00591597 0.00591037 0.00591037 0.00590499 0.00590499 0.00589982 0.00589982 0.00589484 0.00589484 0.00589006 0.00589006 0.00588545 0.00588545 0.005881 0.005881 0.00587671 0.00587671 0.00587256 0.00587256 0.00586855 0.00586855 0.00586467 0.00586467 0.00586092 0.00586092 0.00585728 0.00585728 0.00585376 0.00585376 0.00585034 0.00585034 0.00584703 0.00584703 0.00584