# vtk DataFile Version 3.0
#This file was generated by the deal.II library on 2020/9/1 at 14:40:50
ASCII
DATASET UNSTRUCTURED_GRID

POINTS 2048 double
1.5 0 0
1.59619 0 0
1.59619 0 0
1.69238 0 0
1.69238 0 0
1.78857 0 0
1.78857 0 0
1.88477 0 0
1.88477 0 0
1.98096 0 0
1.98096 0 0
2.07715 0 0
2.07715 0 0
2.17334 0 0
2.17334 0 0
2.26953 0 0
2.26953 0 0
2.36572 0 0
2.36572 0 0
2.46191 0 0
2.46191 0 0
2.55811 0 0
2.55811 0 0
2.6543 0 0
2.6543 0 0
2.75049 0 0
2.75049 0 0
2.84668 0 0
2.84668 0 0
2.94287 0 0
2.94287 0 0
3.03906 0 0
3.03906 0 0
3.13525 0 0
3.13525 0 0
3.23145 0 0
3.23145 0 0
3.32764 0 0
3.32764 0 0
3.42383 0 0
3.42383 0 0
3.52002 0 0
3.52002 0 0
3.61621 0 0
3.61621 0 0
3.7124 0 0
3.7124 0 0
3.80859 0 0
3.80859 0 0
3.90479 0 0
3.90479 0 0
4.00098 0 0
4.00098 0 0
4.09717 0 0
4.09717 0 0
4.19336 0 0
4.19336 0 0
4.28955 0 0
4.28955 0 0
4.38574 0 0
4.38574 0 0
4.48193 0 0
4.48193 0 0
4.57812 0 0
4.57812 0 0
4.67432 0 0
4.67432 0 0
4.77051 0 0
4.77051 0 0
4.8667 0 0
4.8667 0 0
4.96289 0 0
4.96289 0 0
5.05908 0 0
5.05908 0 0
5.15527 0 0
5.15527 0 0
5.25146 0 0
5.25146 0 0
5.34766 0 0
5.34766 0 0
5.44385 0 0
5.44385 0 0
5.54004 0 0
5.54004 0 0
5.63623 0 0
5.63623 0 0
5.73242 0 0
5.73242 0 0
5.82861 0 0
5.82861 0 0
5.9248 0 0
5.9248 0 0
6.021 0 0
6.021 0 0
6.11719 0 0
6.11719 0 0
6.21338 0 0
6.21338 0 0
6.30957 0 0
6.30957 0 0
6.40576 0 0
6.40576 0 0
6.50195 0 0
6.50195 0 0
6.59814 0 0
6.59814 0 0
6.69434 0 0
6.69434 0 0
6.79053 0 0
6.79053 0 0
6.88672 0 0
6.88672 0 0
6.98291 0 0
6.98291 0 0
7.0791 0 0
7.0791 0 0
7.17529 0 0
7.17529 0 0
7.27148 0 0
7.27148 0 0
7.36768 0 0
7.36768 0 0
7.46387 0 0
7.46387 0 0
7.56006 0 0
7.56006 0 0
7.65625 0 0
7.65625 0 0
7.75244 0 0
7.75244 0 0
7.84863 0 0
7.84863 0 0
7.94482 0 0
7.94482 0 0
8.04102 0 0
8.04102 0 0
8.13721 0 0
8.13721 0 0
8.2334 0 0
8.2334 0 0
8.32959 0 0
8.32959 0 0
8.42578 0 0
8.42578 0 0
8.52197 0 0
8.52197 0 0
8.61816 0 0
8.61816 0 0
8.71436 0 0
8.71436 0 0
8.81055 0 0
8.81055 0 0
8.90674 0 0
8.90674 0 0
9.00293 0 0
9.00293 0 0
9.09912 0 0
9.09912 0 0
9.19531 0 0
9.19531 0 0
9.2915 0 0
9.2915 0 0
9.3877 0 0
9.3877 0 0
9.48389 0 0
9.48389 0 0
9.58008 0 0
9.58008 0 0
9.67627 0 0
9.67627 0 0
9.77246 0 0
9.77246 0 0
9.86865 0 0
9.86865 0 0
9.96484 0 0
9.96484 0 0
10.061 0 0
10.061 0 0
10.1572 0 0
10.1572 0 0
10.2534 0 0
10.2534 0 0
10.3496 0 0
10.3496 0 0
10.4458 0 0
10.4458 0 0
10.542 0 0
10.542 0 0
10.6382 0 0
10.6382 0 0
10.7344 0 0
10.7344 0 0
10.8306 0 0
10.8306 0 0
10.9268 0 0
10.9268 0 0
11.0229 0 0
11.0229 0 0
11.1191 0 0
11.1191 0 0
11.2153 0 0
11.2153 0 0
11.3115 0 0
11.3115 0 0
11.4077 0 0
11.4077 0 0
11.5039 0 0
11.5039 0 0
11.6001 0 0
11.6001 0 0
11.6963 0 0
11.6963 0 0
11.7925 0 0
11.7925 0 0
11.8887 0 0
11.8887 0 0
11.9849 0 0
11.9849 0 0
12.0811 0 0
12.0811 0 0
12.1772 0 0
12.1772 0 0
12.2734 0 0
12.2734 0 0
12.3696 0 0
12.3696 0 0
12.4658 0 0
12.4658 0 0
12.562 0 0
12.562 0 0
12.6582 0 0
12.6582 0 0
12.7544 0 0
12.7544 0 0
12.8506 0 0
12.8506 0 0
12.9468 0 0
12.9468 0 0
13.043 0 0
13.043 0 0
13.1392 0 0
13.1392 0 0
13.2354 0 0
13.2354 0 0
13.3315 0 0
13.3315 0 0
13.4277 0 0
13.4277 0 0
13.5239 0 0
13.5239 0 0
13.6201 0 0
13.6201 0 0
13.7163 0 0
13.7163 0 0
13.8125 0 0
13.8125 0 0
13.9087 0 0
13.9087 0 0
14.0049 0 0
14.0049 0 0
14.1011 0 0
14.1011 0 0
14.1973 0 0
14.1973 0 0
14.2935 0 0
14.2935 0 0
14.3896 0 0
14.3896 0 0
14.4858 0 0
14.4858 0 0
14.582 0 0
14.582 0 0
14.6782 0 0
14.6782 0 0
14.7744 0 0
14.7744 0 0
14.8706 0 0
14.8706 0 0
14.9668 0 0
14.9668 0 0
15.063 0 0
15.063 0 0
15.1592 0 0
15.1592 0 0
15.2554 0 0
15.2554 0 0
15.3516 0 0
15.3516 0 0
15.4478 0 0
15.4478 0 0
15.5439 0 0
15.5439 0 0
15.6401 0 0
15.6401 0 0
15.7363 0 0
15.7363 0 0
15.8325 0 0
15.8325 0 0
15.9287 0 0
15.9287 0 0
16.0249 0 0
16.0249 0 0
16.1211 0 0
16.1211 0 0
16.2173 0 0
16.2173 0 0
16.3135 0 0
16.3135 0 0
16.4097 0 0
16.4097 0 0
16.5059 0 0
16.5059 0 0
16.6021 0 0
16.6021 0 0
16.6982 0 0
16.6982 0 0
16.7944 0 0
16.7944 0 0
16.8906 0 0
16.8906 0 0
16.9868 0 0
16.9868 0 0
17.083 0 0
17.083 0 0
17.1792 0 0
17.1792 0 0
17.2754 0 0
17.2754 0 0
17.3716 0 0
17.3716 0 0
17.4678 0 0
17.4678 0 0
17.564 0 0
17.564 0 0
17.6602 0 0
17.6602 0 0
17.7563 0 0
17.7563 0 0
17.8525 0 0
17.8525 0 0
17.9487 0 0
17.9487 0 0
18.0449 0 0
18.0449 0 0
18.1411 0 0
18.1411 0 0
18.2373 0 0
18.2373 0 0
18.3335 0 0
18.3335 0 0
18.4297 0 0
18.4297 0 0
18.5259 0 0
18.5259 0 0
18.6221 0 0
18.6221 0 0
18.7183 0 0
18.7183 0 0
18.8145 0 0
18.8145 0 0
18.9106 0 0
18.9106 0 0
19.0068 0 0
19.0068 0 0
19.103 0 0
19.103 0 0
19.1992 0 0
19.1992 0 0
19.2954 0 0
19.2954 0 0
19.3916 0 0
19.3916 0 0
19.4878 0 0
19.4878 0 0
19.584 0 0
19.584 0 0
19.6802 0 0
19.6802 0 0
19.7764 0 0
19.7764 0 0
19.8726 0 0
19.8726 0 0
19.9688 0 0
19.9688 0 0
20.0649 0 0
20.0649 0 0
20.1611 0 0
20.1611 0 0
20.2573 0 0
20.2573 0 0
20.3535 0 0
20.3535 0 0
20.4497 0 0
20.4497 0 0
20.5459 0 0
20.5459 0 0
20.6421 0 0
20.6421 0 0
20.7383 0 0
20.7383 0 0
20.8345 0 0
20.8345 0 0
20.9307 0 0
20.9307 0 0
21.0269 0 0
21.0269 0 0
21.123 0 0
21.123 0 0
21.2192 0 0
21.2192 0 0
21.3154 0 0
21.3154 0 0
21.4116 0 0
21.4116 0 0
21.5078 0 0
21.5078 0 0
21.604 0 0
21.604 0 0
21.7002 0 0
21.7002 0 0
21.7964 0 0
21.7964 0 0
21.8926 0 0
21.8926 0 0
21.9888 0 0
21.9888 0 0
22.085 0 0
22.085 0 0
22.1812 0 0
22.1812 0 0
22.2773 0 0
22.2773 0 0
22.3735 0 0
22.3735 0 0
22.4697 0 0
22.4697 0 0
22.5659 0 0
22.5659 0 0
22.6621 0 0
22.6621 0 0
22.7583 0 0
22.7583 0 0
22.8545 0 0
22.8545 0 0
22.9507 0 0
22.9507 0 0
23.0469 0 0
23.0469 0 0
23.1431 0 0
23.1431 0 0
23.2393 0 0
23.2393 0 0
23.3354 0 0
23.3354 0 0
23.4316 0 0
23.4316 0 0
23.5278 0 0
23.5278 0 0
23.624 0 0
23.624 0 0
23.7202 0 0
23.7202 0 0
23.8164 0 0
23.8164 0 0
23.9126 0 0
23.9126 0 0
24.0088 0 0
24.0088 0 0
24.105 0 0
24.105 0 0
24.2012 0 0
24.2012 0 0
24.2974 0 0
24.2974 0 0
24.3936 0 0
24.3936 0 0
24.4897 0 0
24.4897 0 0
24.5859 0 0
24.5859 0 0
24.6821 0 0
24.6821 0 0
24.7783 0 0
24.7783 0 0
24.8745 0 0
24.8745 0 0
24.9707 0 0
24.9707 0 0
25.0669 0 0
25.0669 0 0
25.1631 0 0
25.1631 0 0
25.2593 0 0
25.2593 0 0
25.3555 0 0
25.3555 0 0
25.4517 0 0
25.4517 0 0
25.5479 0 0
25.5479 0 0
25.644 0 0
25.644 0 0
25.7402 0 0
25.7402 0 0
25.8364 0 0
25.8364 0 0
25.9326 0 0
25.9326 0 0
26.0288 0 0
26.0288 0 0
26.125 0 0
26.125 0 0
26.2212 0 0
26.2212 0 0
26.3174 0 0
26.3174 0 0
26.4136 0 0
26.4136 0 0
26.5098 0 0
26.5098 0 0
26.606 0 0
26.606 0 0
26.7021 0 0
26.7021 0 0
26.7983 0 0
26.7983 0 0
26.8945 0 0
26.8945 0 0
26.9907 0 0
26.9907 0 0
27.0869 0 0
27.0869 0 0
27.1831 0 0
27.1831 0 0
27.2793 0 0
27.2793 0 0
27.3755 0 0
27.3755 0 0
27.4717 0 0
27.4717 0 0
27.5679 0 0
27.5679 0 0
27.6641 0 0
27.6641 0 0
27.7603 0 0
27.7603 0 0
27.8564 0 0
27.8564 0 0
27.9526 0 0
27.9526 0 0
28.0488 0 0
28.0488 0 0
28.145 0 0
28.145 0 0
28.2412 0 0
28.2412 0 0
28.3374 0 0
28.3374 0 0
28.4336 0 0
28.4336 0 0
28.5298 0 0
28.5298 0 0
28.626 0 0
28.626 0 0
28.7222 0 0
28.7222 0 0
28.8184 0 0
28.8184 0 0
28.9146 0 0
28.9146 0 0
29.0107 0 0
29.0107 0 0
29.1069 0 0
29.1069 0 0
29.2031 0 0
29.2031 0 0
29.2993 0 0
29.2993 0 0
29.3955 0 0
29.3955 0 0
29.4917 0 0
29.4917 0 0
29.5879 0 0
29.5879 0 0
29.6841 0 0
29.6841 0 0
29.7803 0 0
29.7803 0 0
29.8765 0 0
29.8765 0 0
29.9727 0 0
29.9727 0 0
30.0688 0 0
30.0688 0 0
30.165 0 0
30.165 0 0
30.2612 0 0
30.2612 0 0
30.3574 0 0
30.3574 0 0
30.4536 0 0
30.4536 0 0
30.5498 0 0
30.5498 0 0
30.646 0 0
30.646 0 0
30.7422 0 0
30.7422 0 0
30.8384 0 0
30.8384 0 0
30.9346 0 0
30.9346 0 0
31.0308 0 0
31.0308 0 0
31.127 0 0
31.127 0 0
31.2231 0 0
31.2231 0 0
31.3193 0 0
31.3193 0 0
31.4155 0 0
31.4155 0 0
31.5117 0 0
31.5117 0 0
31.6079 0 0
31.6079 0 0
31.7041 0 0
31.7041 0 0
31.8003 0 0
31.8003 0 0
31.8965 0 0
31.8965 0 0
31.9927 0 0
31.9927 0 0
32.0889 0 0
32.0889 0 0
32.1851 0 0
32.1851 0 0
32.2812 0 0
32.2812 0 0
32.3774 0 0
32.3774 0 0
32.4736 0 0
32.4736 0 0
32.5698 0 0
32.5698 0 0
32.666 0 0
32.666 0 0
32.7622 0 0
32.7622 0 0
32.8584 0 0
32.8584 0 0
32.9546 0 0
32.9546 0 0
33.0508 0 0
33.0508 0 0
33.147 0 0
33.147 0 0
33.2432 0 0
33.2432 0 0
33.3394 0 0
33.3394 0 0
33.4355 0 0
33.4355 0 0
33.5317 0 0
33.5317 0 0
33.6279 0 0
33.6279 0 0
33.7241 0 0
33.7241 0 0
33.8203 0 0
33.8203 0 0
33.9165 0 0
33.9165 0 0
34.0127 0 0
34.0127 0 0
34.1089 0 0
34.1089 0 0
34.2051 0 0
34.2051 0 0
34.3013 0 0
34.3013 0 0
34.3975 0 0
34.3975 0 0
34.4937 0 0
34.4937 0 0
34.5898 0 0
34.5898 0 0
34.686 0 0
34.686 0 0
34.7822 0 0
34.7822 0 0
34.8784 0 0
34.8784 0 0
34.9746 0 0
34.9746 0 0
35.0708 0 0
35.0708 0 0
35.167 0 0
35.167 0 0
35.2632 0 0
35.2632 0 0
35.3594 0 0
35.3594 0 0
35.4556 0 0
35.4556 0 0
35.5518 0 0
35.5518 0 0
35.6479 0 0
35.6479 0 0
35.7441 0 0
35.7441 0 0
35.8403 0 0
35.8403 0 0
35.9365 0 0
35.9365 0 0
36.0327 0 0
36.0327 0 0
36.1289 0 0
36.1289 0 0
36.2251 0 0
36.2251 0 0
36.3213 0 0
36.3213 0 0
36.4175 0 0
36.4175 0 0
36.5137 0 0
36.5137 0 0
36.6099 0 0
36.6099 0 0
36.7061 0 0
36.7061 0 0
36.8022 0 0
36.8022 0 0
36.8984 0 0
36.8984 0 0
36.9946 0 0
36.9946 0 0
37.0908 0 0
37.0908 0 0
37.187 0 0
37.187 0 0
37.2832 0 0
37.2832 0 0
37.3794 0 0
37.3794 0 0
37.4756 0 0
37.4756 0 0
37.5718 0 0
37.5718 0 0
37.668 0 0
37.668 0 0
37.7642 0 0
37.7642 0 0
37.8604 0 0
37.8604 0 0
37.9565 0 0
37.9565 0 0
38.0527 0 0
38.0527 0 0
38.1489 0 0
38.1489 0 0
38.2451 0 0
38.2451 0 0
38.3413 0 0
38.3413 0 0
38.4375 0 0
38.4375 0 0
38.5337 0 0
38.5337 0 0
38.6299 0 0
38.6299 0 0
38.7261 0 0
38.7261 0 0
38.8223 0 0
38.8223 0 0
38.9185 0 0
38.9185 0 0
39.0146 0 0
39.0146 0 0
39.1108 0 0
39.1108 0 0
39.207 0 0
39.207 0 0
39.3032 0 0
39.3032 0 0
39.3994 0 0
39.3994 0 0
39.4956 0 0
39.4956 0 0
39.5918 0 0
39.5918 0 0
39.688 0 0
39.688 0 0
39.7842 0 0
39.7842 0 0
39.8804 0 0
39.8804 0 0
39.9766 0 0
39.9766 0 0
40.0728 0 0
40.0728 0 0
40.1689 0 0
40.1689 0 0
40.2651 0 0
40.2651 0 0
40.3613 0 0
40.3613 0 0
40.4575 0 0
40.4575 0 0
40.5537 0 0
40.5537 0 0
40.6499 0 0
40.6499 0 0
40.7461 0 0
40.7461 0 0
40.8423 0 0
40.8423 0 0
40.9385 0 0
40.9385 0 0
41.0347 0 0
41.0347 0 0
41.1309 0 0
41.1309 0 0
41.2271 0 0
41.2271 0 0
[...]
POINT_DATA 2048
SCALARS solution_0 double 1
LOOKUP_TABLE default
0.221999 0.23141 0.23141 0.240367 0.240367 0.248936 0.248936 0.257157 0.257157 0.265061 0.265061 0.272665 0.272665 0.279982 0.279982 0.287016 0.287016 0.293769 0.293769 0.300238 0.300238 0.306419 0.306419 0.312303 0.312303 0.317882 0.317882 0.323145 0.323145 0.328079 0.328079 0.332672 0.332672 0.336909 0.336909 0.340776 0.340776 0.344257 0.344257 0.347336 0.347336 0.349996 0.349996 0.35222 0.35222 0.353993 0.353993 0.355295 0.355295 0.356111 0.356111 0.356423 0.356423 0.356214 0.356214 0.355466 0.355466 0.354164 0.354164 0.352291 0.352291 0.34983 0.34983 0.346766 0.346766 0.343084 0.343084 0.33877 0.33877 0.33381 0.33381 0.32819 0.32819 0.321898 0.321898 0.314924 0.314924 0.307255 0.307255 0.298883 0.298883 0.289798 0.289798 0.279995 0.279995 0.269465 0.269465 0.258203 0.258203 0.246207 0.246207 0.233472 0.233472 0.219999 0.219999 0.205785 0.205785 0.190834 0.190834 0.175147 0.175147 0.158729 0.158729 0.141585 0.141585 0.123724 0.123724 0.105153 0.105153 0.0858825 0.0858825 0.065925 0.065925 0.0452936 0.0452936 0.0240032 0.0240032 0.00207028 0.00207028 -0.0204871 -0.0204871 -0.0436493 -0.0436493 -0.0673953 -0.0673953 -0.0917025 -0.0917025 -0.116547 -0.116547 -0.141903 -0.141903 -0.167744 -0.167744 -0.194041 -0.194041 -0.220766 -0.220766 -0.247887 -0.247887 -0.275372 -0.275372 -0.303188 -0.303188 -0.331302 -0.331302 -0.359676 -0.359676 -0.388277 -0.388277 -0.417065 -0.417065 -0.446005 -0.446005 -0.475056 -0.475056 -0.504179 -0.504179 -0.533336 -0.533336 -0.562485 -0.562485 -0.591586 -0.591586 -0.620598 -0.620598 -0.64948 -0.64948 -0.678191 -0.678191 -0.706689 -0.706689 -0.734933 -0.734933 -0.762883 -0.762883 -0.790498 -0.790498 -0.817737 -0.817737 -0.844561 -0.844561 -0.87093 -0.87093 -0.896806 -0.896806 -0.922151 -0.922151 -0.946927 -0.946927 -0.9711 -0.9711 -0.994634 -0.994634 -1.01749 -1.01749 -1.03965 -1.03965 -1.06107 -1.06107 -1.08171 -1.08171 -1.10157 -1.10157 -1.1206 -1.1206 -1.13877 -1.13877 -1.15608 -1.15608 -1.17248 -1.17248 -1.18797 -1.18797 -1.20253 -1.20253 -1.21612 -1.21612 -1.22875 -1.22875 -1.24039 -1.24039 -1.25103 -1.25103 -1.26067 -1.26067 -1.26929 -1.26929 -1.27689 -1.27689 -1.28346 -1.28346 -1.289 -1.289 -1.29351 -1.29351 -1.29699 -1.29699 -1.29944 -1.29944 -1.30087 -1.30087 -1.30128 -1.30128 -1.30069 -1.30069 -1.29909 -1.29909 -1.29651 -1.29651 -1.29295 -1.29295 -1.28843 -1.28843 -1.28297 -1.28297 -1.27658 -1.27658 -1.26929 -1.26929 -1.2611 -1.2611 -1.25206 -1.25206 -1.24217 -1.24217 -1.23146 -1.23146 -1.21996 -1.21996 -1.20769 -1.20769 -1.19468 -1.19468 -1.18096 -1.18096 -1.16656 -1.16656 -1.1515 -1.1515 -1.13582 -1.13582 -1.11954 -1.11954 -1.10271 -1.10271 -1.08534 -1.08534 -1.06748 -1.06748 -1.04915 -1.04915 -1.03038 -1.03038 -1.01122 -1.01122 -0.991682 -0.991682 -0.971811 -0.971811 -0.951635 -0.951635 -0.931187 -0.931187 -0.910498 -0.910498 -0.8896 -0.8896 -0.868525 -0.868525 -0.847302 -0.847302 -0.825963 -0.825963 -0.804536 -0.804536 -0.783051 -0.783051 -0.761537 -0.761537 -0.74002 -0.74002 -0.718529 -0.718529 -0.697089 -0.697089 -0.675726 -0.675726 -0.654464 -0.654464 -0.633328 -0.633328 -0.612339 -0.612339 -0.59152 -0.59152 -0.570893 -0.570893 -0.550476 -0.550476 -0.530289 -0.530289 -0.51035 -0.51035 -0.490677 -0.490677 -0.471284 -0.471284 -0.452188 -0.452188 -0.433402 -0.433402 -0.414939 -0.414939 -0.396812 -0.396812 -0.379031 -0.379031 -0.361607 -0.361607 -0.344549 -0.344549 -0.327864 -0.327864 -0.311561 -0.311561 -0.295645 -0.295645 -0.280122 -0.280122 -0.264997 -0.264997 -0.250272 -0.250272 -0.235951 -0.235951 -0.222037 -0.222037 -0.208529 -0.208529 -0.195429 -0.195429 -0.182737 -0.182737 -0.170451 -0.170451 -0.15857 -0.15857 -0.147091 -0.147091 -0.136013 -0.136013 -0.125331 -0.125331 -0.115041 -0.115041 -0.105139 -0.105139 -0.09562 -0.09562 -0.0864786 -0.0864786 -0.077709 -0.077709 -0.0693049 -0.0693049 -0.0612597 -0.0612597 -0.0535665 -0.0535665 -0.046218 -0.046218 -0.039207 -0.039207 -0.0325255 -0.0325255 -0.0261657 -0.0261657 -0.0201195 -0.0201195 -0.0143786 -0.0143786 -0.00893456 -0.00893456 -0.00377892 -0.00377892 0.00109693 0.00109693 0.00570164 0.00570164 0.0100439 0.0100439 0.0141325 0.0141325 0.017976 0.017976 0.0215833 0.0215833 0.0249629 0.0249629 0.0281234 0.0281234 0.0310734 0.0310734 0.0338212 0.0338212 0.0363754 0.0363754 0.0387439 0.0387439 0.0409351 0.0409351 0.0429567 0.0429567 0.0448167 0.0448167 0.0465227 0.0465227 0.0480821 0.0480821 0.0495024 0.0495024 0.0507905 0.0507905 0.0519536 0.0519536 0.0529983 0.0529983 0.0539312 0.0539312 0.0547587 0.0547587 0.0554869 0.0554869 0.0561219 0.0561219 0.0566694 0.0566694 0.0571349 0.0571349 0.0575239 0.0575239 0.0578414 0.0578414 0.0580925 0.0580925 0.0582818 0.0582818 0.0584139 0.0584139 0.0584932 0.0584932 0.0585238 0.0585238 0.0585097 0.0585097 0.0584547 0.0584547 0.0583624 0.0583624 0.0582361 0.0582361 0.058079 0.058079 0.0578944 0.0578944 0.057685 0.057685 0.0574535 0.0574535 0.0572026 0.0572026 0.0569346 0.0569346 0.0566519 0.0566519 0.0563565 0.0563565 0.0560504 0.0560504 0.0557355 0.0557355 0.0554135 0.0554135 0.055086 0.055086 0.0547544 0.0547544 0.0544202 0.0544202 0.0540846 0.0540846 0.0537487 0.0537487 0.0534137 0.0534137 0.0530804 0.0530804 0.0527497 0.0527497 0.0524226 0.0524226 0.0520995 0.0520995 0.0517813 0.0517813 0.0514684 0.0514684 0.0511614 0.0511614 0.0508608 0.0508608 0.0505668 0.0505668 0.0502798 0.0502798 0.0500001 0.0500001 0.0497279 0.0497279 0.0494635 0.0494635 0.0492068 0.0492068 0.0489582 0.0489582 0.0487176 0.0487176 0.048485 0.048485 0.0482605 0.0482605 0.0480441 0.0480441 0.0478357 0.0478357 0.0476353 0.0476353 0.0474427 0.0474427 0.0472579 0.0472579 0.0470808 0.0470808 0.0469112 0.0469112 0.046749 0.046749 0.046594 0.046594 0.0464461 0.0464461 0.0463051 0.0463051 0.0461708 0.0461708 0.0460431 0.0460431 0.0459217 0.0459217 0.0458065 0.0458065 0.0456973 0.0456973 0.0455939 0.0455939 0.0454961 0.0454961 0.0454036 0.0454036 0.0453164 0.0453164 0.0452342 0.0452342 0.0451568 0.0451568 0.0450841 0.0450841 0.0450158 0.0450158 0.0449517 0.0449517 0.0448918 0.0448918 0.0448358 0.0448358 0.0447835 0.0447835 0.0447348 0.0447348 0.0446896 0.0446896 0.0446476 0.0446476 0.0446087 0.0446087 0.0445727 0.0445727 0.0445396 0.0445396 0.0445092 0.0445092 0.0444812 0.0444812 0.0444558 0.0444558 0.0444325 0.0444325 0.0444115 0.0444115 0.0443925 0.0443925 0.0443755 0.0443755 0.0443603 0.0443603 0.0443468 0.0443468 0.0443349 0.0443349 0.0443246 0.0443246 0.0443157 0.0443157 0.0443082 0.0443082 0.044302 0.044302 0.044297 0.044297 0.0442931 0.0442931 0.0442903 0.0442903 0.0442884 0.0442884 0.0442875 0.0442875 0.0442874 0.0442874 0.0442882 0.0442882 0.0442897 0.0442897 0.0442919 0.0442919 0.0442948 0.0442948 0.0442982 0.0442982 0.0443023 0.0443023 0.0443068 0.0443068 0.0443118 0.0443118 0.0443173 0.0443173 0.0443232 0.0443232 0.0443294 0.0443294 0.044336 0.044336 0.0443429 0.0443429 0.0443501 0.0443501 0.0443576 0.0443576 0.0443653 0.0443653 0.0443732 0.0443732 0.0443813 0.0443813 0.0443895 0.0443895 0.0443979 0.0443979 0.0444065 0.0444065 0.0444151 0.0444151 0.0444239 0.0444239 0.0444327 0.0444327 0.0444417 0.0444417 0.0444506 0.0444506 0.0444597 0.0444597 0.0444687 0.0444687 0.0444778 0.0444778 0.0444869 0.0444869 0.044496 0.044496 0.0445051 0.0445051 0.0445142 0.0445142 0.0445233 0.0445233 0.0445324 0.0445324 0.0445414 0.0445414 0.0445504 0.0445504 0.0445593 0.0445593 0.0445682 0.0445682 0.0445771 0.0445771 0.0445859 0.0445859 0.0445946 0.0445946 0.0446033 0.0446033 0.0446119 0.0446119 0.0446204 0.0446204 0.0446289 0.0446289 0.0446373 0.0446373 0.0446456 0.0446456 0.0446539 0.0446539 0.044662 0.044662 0.0446701 0.0446701 0.0446781 0.0446781 0.044686 0.044686 0.0446938 0.0446938 0.0447016 0.0447016 0.0447092 0.0447092 0.0447168 0.0447168 0.0447243 0.0447243 0.0447316 0.0447316 0.0447389 0.0447389 0.0447461 0.0447461 0.0447533 0.0447533 0.0447603 0.0447603 0.0447672 0.0447672 0.0447741 0.0447741 0.0447808 0.0447808 0.0447875 0.0447875 0.0447941 0.0447941 0.0448006 0.0448006 0.044807 0.044807 0.0448133 0.0448133 0.0448195 0.0448195 0.0448256 0.0448256 0.0448317 0.0448317 0.0448376 0.0448376 0.0448435 0.0448435 0.0448493 0.0448493 0.044855 0.044855 0.0448606 0.0448606 0.0448661 0.0448661 0.0448716 0.0448716 0.0448769 0.0448769 0.0448822 0.0448822 0.0448874 0.0448874 0.0448925 0.0448925 0.0448976 0.0448976 0.0449025 0.0449025 0.0449074 0.0449074 0.0449122 0.0449122 0.044917 0.044917 0.0449216 0.0449216 0.0449262 0.0449262 0.0449307 0.0449307 0.0449352 0.0449352 0.0449395 0.0449395 0.0449438 0.0449438 0.0449481 0.0449481 0.0449522 0.0449522 0.0449563 0.0449563 0.0449603 0.0449603 0.0449643 0.0449643 0.0449682 0.0449682 0.044972 0.044972 0.0449758 0.0449758 0.0449795 0.0449795 0.0449831 0.0449831 0.0449867 0.0449867 0.0449902 0.0449902 0.0449937 0.0449937 0.0449971 0.0449971 0.0450004 0.0450004 0.0450037 0.0450037 0.0450069 0.0450069 0.0450101 0.0450101 0.0450132 0.0450132 0.0450163 0.0450163 0.0450193 0.0450193 0.0450223 0.0450223 0.0450252 0.0450252 0.045028 0.045028 0.0450308 0.0450308 0.0450336 0.0450336 0.0450363 0.0450363 0.045039 0.045039 0.0450416 0.0450416 0.0450442 0.0450442 0.0450468 0.0450468 0.0450492 0.0450492 0.0450517 0.0450517 0.0450541 0.0450541 0.0450565 0.0450565 0.0450588 0.0450588 0.0450611 0.0450611 0.0450634 0.0450634 0.0450656 0.0450656 0.0450677 0.0450677 0.0450699 0.0450699 0.045072 0.045072 0.0450741 0.0450741 0.0450761 0.0450761 0.0450781 0.0450781 0.0450801 0.0450801 0.045082 0.045082 0.0450839 0.0450839 0.0450858 0.0450858 0.0450877 0.0450877 0.0450895 0.0450895 0.0450913 0.0450913 0.045093 0.045093 0.0450948 0.0450948 0.0450965 0.0450965 0.0450982 0.0450982 0.0450998 0.0450998 0.0451015 0.0451015 0.0451031 0.0451031 0.0451047 0.0451047 0.0451062 0.0451062 0.0451078 0.0451078 0.0451093 0.0451093 0.0451108 0.0451108 0.0451123 0.0451123 0.0451137 0.0451137 0.0451152 0.0451152 0.0451166 0.0451166 0.045118 0.045118 0.0451194 0.0451194 0.0451208 0.0451208 0.0451222 0.0451222 0.0451235 0.0451235 0.0451248 0.0451248 0.0451261 0.0451261 0.0451274 0.0451274 0.0451287 0.0451287 0.04513 0.04513 0.0451313 0.0451313 0.0451325 0.0451325 0.0451338 0.0451338 0.045135 0.045135 0.0451362 0.0451362 0.0451374 0.0451374 0.0451386 0.0451386 0.0451398 0.0451398 0.045141 0.045141 0.0451422 0.0451422 0.0451434 0.0451434 0.0451445 0.0451445 0.0451457 0.0451457 0.0451468 0.0451468 0.045148 0.045148 0.0451491 0.0451491 0.0451503 0.0451503 0.0451514 0.0451514 0.0451525 0.0451525 0.0451536 0.0451536 0.0451548 0.0451548 0.0451559 0.0451559 0.045157 0.045157 0.0451581 0.0451581 0.0451592 0.0451592 0.0451603 0.0451603 0.0451615 0.0451615 0.0451626 0.0451626 0.0451637 0.0451637 0.0451648 0.0451648 0.0451659 0.0451659 0.0451671 0.0451671 0.0451682 0.0451682 0.0451693 0.0451693 0.0451704 0.0451704 0.0451716 0.0451716 0.0451727 0.0451727 0.0451738 0.0451738 0.045175 0.045175 0.0451761 0.0451761 0.0451773 0.0451773 0.0451784 0.0451784 0.0451796 0.0451796 0.0451808 0.0451808 0.0451819 0.0451819 0.0451831 0.0451831 0.0451843 0.0451843 0.0451855 0.0451855 0.0451867 0.0451867 0.0451879 0.0451879 0.0451892 0.0451892 0.0451904 0.0451904 0.0451916 0.0451916 0.0451929 0.0451929 0.0451941 0.0451941 0.0451954 0.0451954 0.0451967 0.0451967 0.045198 0.045198 0.0451993 0.0451993 0.0452006 0.0452006 0.0452019 0.0452019 0.0452032 0.0452032 0.0452046 0.0452046 0.0452059 0.0452059 0.0452073 0.0452073 0.0452087 0.0452087 0.0452101 0.0452101 0.0452115 0.0452115 0.0452129 0.0452129 0.0452144 0.0452144 0.0452158 0.0452158 0.0452173 0.0452173 0.0452188 0.0452188 0.0452203 0.0452203 0.0452218 0.0452218 0.0452233 0.0452233 0.0452248 0.0452248 0.0452264 0.0452264 0.045228 0.045228 0.0452296 0.0452296 0.0452312 0.0452312 0.0452328 0.0452328 0.0452344 0.0452344 0.0452361 0.0452361 0.0452378 0.0452378 0.0452395 0.0452395 0.0452412 0.0452412 0.0452429 0.0452429 0.0452447 0.0452447 0.0452464 0.0452464 0.0452482 0.0452482 0.04525 0.04525 0.0452519 0.0452519 0.0452537 0.0452537 0.0452556 0.0452556 0.0452575 0.0452575 0.0452594 0.0452594 0.0452613 0.0452613 0.0452633 0.0452633 0.0452653 0.0452653 0.0452673 0.0452673 0.0452693 0.0452693 0.0452713 0.0452713 0.0452734 0.0452734 0.0452755 0.0452755 0.0452776 0.0452776 0.0452797 0.0452797 0.0452819 0.0452819 0.0452841 0.0452841 0.0452863 0.0452863 0.0452885 0.0452885 0.0452907 0.0452907 0.045293 0.045293 0.0452953 0.0452953 0.0452977 0.0452977 0.0453 0.0453 0.0453024 0.0453024 0.0453048 0.0453048 0.0453072 0.0453072 0.0453097 0.0453097 0.0453122 0.0453122 0.0453147 0.0453147 0.0453172 0.0453172 0.0453198 0.0453198 0.0453224 0.0453224 0.045325 0.045325 0.0453277 0.0453277 0.0453303 0.0453303 0.0453331 0.0453331 0.0453358 0.0453358 0.0453386 0.0453386 0.0453414 0.0453414 0.0453442 0.0453442 0.0453471 0.0453471 0.0453499 0.0453499 0.0453529 0.0453529 0.0453558 0.0453558 0.0453588 0.0453588 0.0453618 0.0453618 0.0453649 0.0453649 0.045368 0.045368 0.0453711 0.0453711 0.0453742 0.0453742 0.0453774 0.0453774 0.0453806 0.0453806 0.0453839 0.0453839 0.0453872 0.0453872 0.0453905 0.0453905 0.0453939 0.0453939 0.0453973 0.0453973 0.0454007 0.0454007 0.0454042 0.0454042 0.0454077 0.0454077 0.0454113 0.0454113 0.0454149 0.0454149 0.0454185 0.0454185 0.0454222 0.0454222 0.0454259 0.0454259 0.0454297 0.0454297 0.0454335 0.0454335 0.0454374 0.0454374 0.0454413 0.0454413 0.0454452 0.0454452 0.0454492 0.0454492 0.0454532 0.0454532 0.0454573 0.0454573 0.0454615 0.0454615 0.0454656 0.0454656 0.0454699 0.0454699 0.0454742 0.0454742 0.0454785 0.0454785 0.0454829 0.0454829 0.0454874 0.0454874 0.0454919 0.0454919 0.0454965 0.0454965 0.0455011 0.0455011 0.0455058 0.0455058 0.0455106 0.0455106 0.0455154 0.0455154 0.0455203 0.0455203 0.0455253 0.0455253 0.0455303 0.0455303 0.0455354 0.0455354 0.0455406 0.0455406 0.0455458 0.0455458 0.0455512 0.0455512 0.0455566 0.0455566 0.0455621 0.0455621 0.0455677 0.0455677 0.0455733 0.0455733 0.0455791 0.0455791 0.0455849 0.0455849 0.0455909 0.0455909 0.0455969 0.0455969 0.0456031 0.0456031 0.0456093 0.0456093 0.0456157 0.0456157 0.0456222 0.0456222 0.0456288 0.0456288 0.0456355 0.0456355 0.0456423 0.0456423 0.0456492 0.0456492 0.0456563 0.0456563 0.0456635 0.0456635 0.0456709 0.0456709 0.0456784 0.0456784 0.045686 0.045686 0.0456938 0.0456938 0.0457017 0.0457017 0.0457098 0.0457098 0.0457181 0.0457181 0.0457265 0.0457265 0.0457351 0.0457351 0.0457439 0.0457439 0.0457529 0.0457529 0.0457621 0.0457621 0.0457714 0.0457714 0.0457809 0.0457809 0.0457907 0.0457907 0.0458007 0.0458007 0.0458108 0.0458108 0.0458212 0.0458212 0.0458319 0.0458319 0.0458427 0.0458427 0.0458538 0.0458538 0.0458652 0.0458652 0.0458768 0.0458768 0.0458886 0.0458886 0.0459007 0.0459007 0.0459131 0.0459131 0.0459258 0.0459258 0.0459387 0.0459387 0.0459519 0.0459519 0.0459654 0.0459654 0.0459793 0.0459793 0.0459934 0.0459934 0.0460078 0.0460078 0.0460225 0.0460225 0.0460375 0.0460375 0.0460529 0.0460529 0.0460686 0.0460686 0.0460846 0.0460846 0.0461009 0.0461009 0.0461176 0.0461176 0.0461346 0.0461346 0.046152 0.046152 0.0461697 0.0461697 0.0461877 0.0461877 0.0462061 0.0462061 0.0462249 0.0462249 0.046244 0.046244 0.0462634 0.0462634 0.0462832 0.0462832 0.0463033 0.0463033 0.0463238 0.0463238 0.0463446 0.0463446 0.0463658 0.0463658 0.0463873 0.0463873 0.0464091 0.0464091 0.0464313 0.0464313 0.0464537 0.0464537 0.0464765 0.0464765 0.0464996 0.0464996 0.0465229 0.0465229 0.0465466 0.0465466 0.0465705 0.0465705 0.0465947 0.0465947 0.0466191 0.0466191 0.0466437 0.0466437 0.0466686 0.0466686 0.0466936 0.0466936 0.0467189 0.0467189 0.0467442 0.0467442 0.0467698 0.0467698 0.0467954 0.0467954 0.0468211 0.0468211 0.0468469 0.0468469 0.0468728 0.0468728 0.0468986 0.0468986 0.0469244 0.0469244 0.0469502 0.0469502 0.0469759 0.0469759 0.0470015 0.0470015 0.047027 0.047027 0.0470522 0.0470522 0.0470773 0.0470773 0.0471021 0.0471021 0.0471265 0.0471265 0.0471507 0.0471507 0.0471745 0.0471745 0.0471978 0.0471978 0.0472207 0.0472207 0.047243 0.047243 0.0472648 0.0472648 0.047286 0.047286 0.0473065 0.0473065 0.0473262 0.0473262 0.0473452 0.0473452 0.0473634 0.0473634 0.0473807 0.0473807 0.0473971 0.0473971 0.0474125 0.0474125 0.0474268 0.0474268 0.04744 0.04744 0.0474521 0.0474521 0.0474629 0.0474629 0.0474725 0.0474725 0.0474807 0.0474807 0.0474875 0.0474875 0.0474928 0.0474928 0.0474966 0.0474966 0.0474989 0.0474989 0.0474994 0.0474994 0.0474983 0.0474983 0.0474954 0.0474954 0.0474907 0.0474907 0.0474841 0.0474841 0.0474756 0.0474756 0.0474651 0.0474651 0.0474525 0.0474525 0.0474378 0.0474378 0.0474209 0.0474209 0.0474018 0.0474018 0.0473805 0.0473805 0.0473568 0.0473568 0.0473308 0.0473308 0.0473023 0.0473023 0.0472714 0.0472714 0.047238 0.047238 0.0472021 0.0472021 0.0471636 0.0471636 0.0471224 0.0471224 0.0470786 0.0470786 0.0470322 0.0470322 0.046983 0.046983 0.0469311 0.0469311 0.0468765 0.0468765 0.0468191 0.0468191 0.0467589 0.0467589 0.0466959 0.0466959 0.0466301 0.0466301 0.0465615 0.0465615 0.04649 0.04649 0.0464158 0.0464158 0.0463387 0.0463387 0.0462589 0.0462589 0.0461762 0.0461762 0.0460908 0.0460908 0.0460026 0.0460026 0.0459117 0.0459117 0.0458181 0.0458181 0.0457217 0.0457217 0.0456228 0.0456228 0.0455212 0.0455212 0.0454171 0.0454171 0.0453105 0.0453105 0.0452013 0.0452013 0.0450898 0.0450898 0.0449759 0.0449759 0.0448597 0.0448597 0.0447412 0.0447412 0.0446205 0.0446205 0.0444978 0.0444978 0.044373 0.044373 0.0442462 0.0442462 0.0441175 0.0441175 0.0439871 0.0439871 0.0438549 0.0438549 0.043721 0.043721 0.0435856 0.0435856 0.0434488 0.0434488 0.0433105 0.0433105 0.043171 0.043171 0.0430303 0.0430303 0.0428885 0.0428885 0.0427456 0.0427456 0.0426019 0.0426019 0.0424574 0.0424574 0.0423122 0.0423122 0.0421665 0.0421665 0.0420202 0.0420202 0.0418735 0.0418735 0.0417265 0.0417265 0.0415794 0.0415794 0.0414321 0.0414321 0.0412849 0.0412849 0.0411377 0.0411377 0.0409908 0.0409908 0.0408442 0.0408442 0.040698 0.040698 0.0405523 0.0405523 0.0404071 0.0404071 0.0402627 0.0402627 0.040119 0.040119 0.0399762 0.0399762 0.0398343 0.0398343 0.0396934 0.0396934 0.0395537 0.0395537 0.0394151 0.0394151 0.0392778 0.0392778 0.0391418 0.0391418 0.0390072 0.0390072 0.038874 0.038874 0.0387423 0.0387423 0.0386123 0.0386123 0.0384838 0.0384838 0.038357 0.038357 0.038232 0.038232 0.0381087 0.0381087 0.0379872 0.0379872 0.0378675 0.0378675 0.0377497 0.0377497 0.0376338 0.0376338 0.0375198 0.0375198 0.0374077 0.0374077 0.0372976 0.0372976 0.0371895 0.0371895 0.0370833 0.0370833 0.036979 0.036979 0.0368767 0.0368767 0.0367764 0.0367764 0.036678 0.036678 0.0365816 0.0365816 0.036487 0.036487 0.0363944 0.0363944 0.0363036 0.0363036 0.0362147 0.0362147 0.0361275 0.0361275 0.0360422 0.0360422 0.0359585 0.0359585 0.0358766 0.0358766 0.0357963 0.0357963 0.0357175 0.0357175 0.0356403 0.0356403 0.0355646 0.0355646 0.0354903 0.0354903 0.0354174 0.0354174 0.0353458 0.0353458 0.0352754 0.0352754 0.0352061 0.0352061 0.035138 0.035138 0.0350708 0.0350708 0.0350046 0.0350046 0.0349392 0.0349392 0.0348746 0.0348746 0.0348107 0.0348107 0.0347474 0.0347474 0.0346845 0.0346845 0.0346221 0.0346221 0.03456 0.03456 0.0344981 0.0344981 0.0344364 0.0344364 0.0343746 0.0343746 0.0343128 0.0343128 0.0342507 0.0342507 0.0341884 0.0341884 0.0341256 0.0341256 0.0340623 0.0340623 0.0339984 0.0339984 0.0339336 0.0339336 0.033868 0.033868 0.0338014 0.0338014 0.0337335 0.0337335 0.0336645 0.0336645 0.0335939 0.0335939 0.0335218 0.0335218 0.033448 0.033448 0.0333723 0.0333723 0.0332946 0.0332946 0.0332147 0.0332147 0.0331325 0.0331325 0.0330477 0.0330477 0.0329602 0.0329602 0.0328699 0.0328699 0.0327764 0.0327764 0.0326797 0.0326797 0.0325795 0.0325795 0.0324757 0.0324757 0.0323679 0.0323679 0.032256 0.032256 0.0321397 0.0321397 0.0320187 0.0320187 0.0318929 0.0318929 0.031762 0.031762 0.0316256 0.0316256 0.0314835 0.0314835 0.0313353 0.0313353 0.0311809 0.0311809 0.0310198 0.0310198 0.0308517 0.0308517 0.0306762 0.0306762 0.0304931 0.0304931 0.0303018 0.0303018 0.0301021 0.0301021 0.0298935 0.0298935 0.0296756 0.0296756 0.0294479 0.0294479 0.02921 0.02921 0.0289615 0.0289615 0.0287018 0.0287018 0.0284304 0.0284304 0.028146