# vtk DataFile Version 3.0
#This file was generated by the deal.II library on 2020/9/1 at 14:40:45
ASCII
DATASET UNSTRUCTURED_GRID

POINTS 2048 double
1.5 0 0
1.59619 0 0
1.59619 0 0
1.69238 0 0
1.69238 0 0
1.78857 0 0
1.78857 0 0
1.88477 0 0
1.88477 0 0
1.98096 0 0
1.98096 0 0
2.07715 0 0
2.07715 0 0
2.17334 0 0
2.17334 0 0
2.26953 0 0
2.26953 0 0
2.36572 0 0
2.36572 0 0
2.46191 0 0
2.46191 0 0
2.55811 0 0
2.55811 0 0
2.6543 0 0
2.6543 0 0
2.75049 0 0
2.75049 0 0
2.84668 0 0
2.84668 0 0
2.94287 0 0
2.94287 0 0
3.03906 0 0
3.03906 0 0
3.13525 0 0
3.13525 0 0
3.23145 0 0
3.23145 0 0
3.32764 0 0
3.32764 0 0
3.42383 0 0
3.42383 0 0
3.52002 0 0
3.52002 0 0
3.61621 0 0
3.61621 0 0
3.7124 0 0
3.7124 0 0
3.80859 0 0
3.80859 0 0
3.90479 0 0
3.90479 0 0
4.00098 0 0
4.00098 0 0
4.09717 0 0
4.09717 0 0
4.19336 0 0
4.19336 0 0
4.28955 0 0
4.28955 0 0
4.38574 0 0
4.38574 0 0
4.48193 0 0
4.48193 0 0
4.57812 0 0
4.57812 0 0
4.67432 0 0
4.67432 0 0
4.77051 0 0
4.77051 0 0
4.8667 0 0
4.8667 0 0
4.96289 0 0
4.96289 0 0
5.05908 0 0
5.05908 0 0
5.15527 0 0
5.15527 0 0
5.25146 0 0
5.25146 0 0
5.34766 0 0
5.34766 0 0
5.44385 0 0
5.44385 0 0
5.54004 0 0
5.54004 0 0
5.63623 0 0
5.63623 0 0
5.73242 0 0
5.73242 0 0
5.82861 0 0
5.82861 0 0
5.9248 0 0
5.9248 0 0
6.021 0 0
6.021 0 0
6.11719 0 0
6.11719 0 0
6.21338 0 0
6.21338 0 0
6.30957 0 0
6.30957 0 0
6.40576 0 0
6.40576 0 0
6.50195 0 0
6.50195 0 0
6.59814 0 0
6.59814 0 0
6.69434 0 0
6.69434 0 0
6.79053 0 0
6.79053 0 0
6.88672 0 0
6.88672 0 0
6.98291 0 0
6.98291 0 0
7.0791 0 0
7.0791 0 0
7.17529 0 0
7.17529 0 0
7.27148 0 0
7.27148 0 0
7.36768 0 0
7.36768 0 0
7.46387 0 0
7.46387 0 0
7.56006 0 0
7.56006 0 0
7.65625 0 0
7.65625 0 0
7.75244 0 0
7.75244 0 0
7.84863 0 0
7.84863 0 0
7.94482 0 0
7.94482 0 0
8.04102 0 0
8.04102 0 0
8.13721 0 0
8.13721 0 0
8.2334 0 0
8.2334 0 0
8.32959 0 0
8.32959 0 0
8.42578 0 0
8.42578 0 0
8.52197 0 0
8.52197 0 0
8.61816 0 0
8.61816 0 0
8.71436 0 0
8.71436 0 0
8.81055 0 0
8.81055 0 0
8.90674 0 0
8.90674 0 0
9.00293 0 0
9.00293 0 0
9.09912 0 0
9.09912 0 0
9.19531 0 0
9.19531 0 0
9.2915 0 0
9.2915 0 0
9.3877 0 0
9.3877 0 0
9.48389 0 0
9.48389 0 0
9.58008 0 0
9.58008 0 0
9.67627 0 0
9.67627 0 0
9.77246 0 0
9.77246 0 0
9.86865 0 0
9.86865 0 0
9.96484 0 0
9.96484 0 0
10.061 0 0
10.061 0 0
10.1572 0 0
10.1572 0 0
10.2534 0 0
10.2534 0 0
10.3496 0 0
10.3496 0 0
10.4458 0 0
10.4458 0 0
10.542 0 0
10.542 0 0
10.6382 0 0
10.6382 0 0
10.7344 0 0
10.7344 0 0
10.8306 0 0
10.8306 0 0
10.9268 0 0
10.9268 0 0
11.0229 0 0
11.0229 0 0
11.1191 0 0
11.1191 0 0
11.2153 0 0
11.2153 0 0
11.3115 0 0
11.3115 0 0
11.4077 0 0
11.4077 0 0
11.5039 0 0
11.5039 0 0
11.6001 0 0
11.6001 0 0
11.6963 0 0
11.6963 0 0
11.7925 0 0
11.7925 0 0
11.8887 0 0
11.8887 0 0
11.9849 0 0
11.9849 0 0
12.0811 0 0
12.0811 0 0
12.1772 0 0
12.1772 0 0
12.2734 0 0
12.2734 0 0
12.3696 0 0
12.3696 0 0
12.4658 0 0
12.4658 0 0
12.562 0 0
12.562 0 0
12.6582 0 0
12.6582 0 0
12.7544 0 0
12.7544 0 0
12.8506 0 0
12.8506 0 0
12.9468 0 0
12.9468 0 0
13.043 0 0
13.043 0 0
13.1392 0 0
13.1392 0 0
13.2354 0 0
13.2354 0 0
13.3315 0 0
13.3315 0 0
13.4277 0 0
13.4277 0 0
13.5239 0 0
13.5239 0 0
13.6201 0 0
13.6201 0 0
13.7163 0 0
13.7163 0 0
13.8125 0 0
13.8125 0 0
13.9087 0 0
13.9087 0 0
14.0049 0 0
14.0049 0 0
14.1011 0 0
14.1011 0 0
14.1973 0 0
14.1973 0 0
14.2935 0 0
14.2935 0 0
14.3896 0 0
14.3896 0 0
14.4858 0 0
14.4858 0 0
14.582 0 0
14.582 0 0
14.6782 0 0
14.6782 0 0
14.7744 0 0
14.7744 0 0
14.8706 0 0
14.8706 0 0
14.9668 0 0
14.9668 0 0
15.063 0 0
15.063 0 0
15.1592 0 0
15.1592 0 0
15.2554 0 0
15.2554 0 0
15.3516 0 0
15.3516 0 0
15.4478 0 0
15.4478 0 0
15.5439 0 0
15.5439 0 0
15.6401 0 0
15.6401 0 0
15.7363 0 0
15.7363 0 0
15.8325 0 0
15.8325 0 0
15.9287 0 0
15.9287 0 0
16.0249 0 0
16.0249 0 0
16.1211 0 0
16.1211 0 0
16.2173 0 0
16.2173 0 0
16.3135 0 0
16.3135 0 0
16.4097 0 0
16.4097 0 0
16.5059 0 0
16.5059 0 0
16.6021 0 0
16.6021 0 0
16.6982 0 0
16.6982 0 0
16.7944 0 0
16.7944 0 0
16.8906 0 0
16.8906 0 0
16.9868 0 0
16.9868 0 0
17.083 0 0
17.083 0 0
17.1792 0 0
17.1792 0 0
17.2754 0 0
17.2754 0 0
17.3716 0 0
17.3716 0 0
17.4678 0 0
17.4678 0 0
17.564 0 0
17.564 0 0
17.6602 0 0
17.6602 0 0
17.7563 0 0
17.7563 0 0
17.8525 0 0
17.8525 0 0
17.9487 0 0
17.9487 0 0
18.0449 0 0
18.0449 0 0
18.1411 0 0
18.1411 0 0
18.2373 0 0
18.2373 0 0
18.3335 0 0
18.3335 0 0
18.4297 0 0
18.4297 0 0
18.5259 0 0
18.5259 0 0
18.6221 0 0
18.6221 0 0
18.7183 0 0
18.7183 0 0
18.8145 0 0
18.8145 0 0
18.9106 0 0
18.9106 0 0
19.0068 0 0
19.0068 0 0
19.103 0 0
19.103 0 0
19.1992 0 0
19.1992 0 0
19.2954 0 0
19.2954 0 0
19.3916 0 0
19.3916 0 0
19.4878 0 0
19.4878 0 0
19.584 0 0
19.584 0 0
19.6802 0 0
19.6802 0 0
19.7764 0 0
19.7764 0 0
19.8726 0 0
19.8726 0 0
19.9688 0 0
19.9688 0 0
20.0649 0 0
20.0649 0 0
20.1611 0 0
20.1611 0 0
20.2573 0 0
20.2573 0 0
20.3535 0 0
20.3535 0 0
20.4497 0 0
20.4497 0 0
20.5459 0 0
20.5459 0 0
20.6421 0 0
20.6421 0 0
20.7383 0 0
20.7383 0 0
20.8345 0 0
20.8345 0 0
20.9307 0 0
20.9307 0 0
21.0269 0 0
21.0269 0 0
21.123 0 0
21.123 0 0
21.2192 0 0
21.2192 0 0
21.3154 0 0
21.3154 0 0
21.4116 0 0
21.4116 0 0
21.5078 0 0
21.5078 0 0
21.604 0 0
21.604 0 0
21.7002 0 0
21.7002 0 0
21.7964 0 0
21.7964 0 0
21.8926 0 0
21.8926 0 0
21.9888 0 0
21.9888 0 0
22.085 0 0
22.085 0 0
22.1812 0 0
22.1812 0 0
22.2773 0 0
22.2773 0 0
22.3735 0 0
22.3735 0 0
22.4697 0 0
22.4697 0 0
22.5659 0 0
22.5659 0 0
22.6621 0 0
22.6621 0 0
22.7583 0 0
22.7583 0 0
22.8545 0 0
22.8545 0 0
22.9507 0 0
22.9507 0 0
23.0469 0 0
23.0469 0 0
23.1431 0 0
23.1431 0 0
23.2393 0 0
23.2393 0 0
23.3354 0 0
23.3354 0 0
23.4316 0 0
23.4316 0 0
23.5278 0 0
23.5278 0 0
23.624 0 0
23.624 0 0
23.7202 0 0
23.7202 0 0
23.8164 0 0
23.8164 0 0
23.9126 0 0
23.9126 0 0
24.0088 0 0
24.0088 0 0
24.105 0 0
24.105 0 0
24.2012 0 0
24.2012 0 0
24.2974 0 0
24.2974 0 0
24.3936 0 0
24.3936 0 0
24.4897 0 0
24.4897 0 0
24.5859 0 0
24.5859 0 0
24.6821 0 0
24.6821 0 0
24.7783 0 0
24.7783 0 0
24.8745 0 0
24.8745 0 0
24.9707 0 0
24.9707 0 0
25.0669 0 0
25.0669 0 0
25.1631 0 0
25.1631 0 0
25.2593 0 0
25.2593 0 0
25.3555 0 0
25.3555 0 0
25.4517 0 0
25.4517 0 0
25.5479 0 0
25.5479 0 0
25.644 0 0
25.644 0 0
25.7402 0 0
25.7402 0 0
25.8364 0 0
25.8364 0 0
25.9326 0 0
25.9326 0 0
26.0288 0 0
26.0288 0 0
26.125 0 0
26.125 0 0
26.2212 0 0
26.2212 0 0
26.3174 0 0
26.3174 0 0
26.4136 0 0
26.4136 0 0
26.5098 0 0
26.5098 0 0
26.606 0 0
26.606 0 0
26.7021 0 0
26.7021 0 0
26.7983 0 0
26.7983 0 0
26.8945 0 0
26.8945 0 0
26.9907 0 0
26.9907 0 0
27.0869 0 0
27.0869 0 0
27.1831 0 0
27.1831 0 0
27.2793 0 0
27.2793 0 0
27.3755 0 0
27.3755 0 0
27.4717 0 0
27.4717 0 0
27.5679 0 0
27.5679 0 0
27.6641 0 0
27.6641 0 0
27.7603 0 0
27.7603 0 0
27.8564 0 0
27.8564 0 0
27.9526 0 0
27.9526 0 0
28.0488 0 0
28.0488 0 0
28.145 0 0
28.145 0 0
28.2412 0 0
28.2412 0 0
28.3374 0 0
28.3374 0 0
28.4336 0 0
28.4336 0 0
28.5298 0 0
28.5298 0 0
28.626 0 0
28.626 0 0
28.7222 0 0
28.7222 0 0
28.8184 0 0
28.8184 0 0
28.9146 0 0
28.9146 0 0
29.0107 0 0
29.0107 0 0
29.1069 0 0
29.1069 0 0
29.2031 0 0
29.2031 0 0
29.2993 0 0
29.2993 0 0
29.3955 0 0
29.3955 0 0
29.4917 0 0
29.4917 0 0
29.5879 0 0
29.5879 0 0
29.6841 0 0
29.6841 0 0
29.7803 0 0
29.7803 0 0
29.8765 0 0
29.8765 0 0
29.9727 0 0
29.9727 0 0
30.0688 0 0
30.0688 0 0
30.165 0 0
30.165 0 0
30.2612 0 0
30.2612 0 0
30.3574 0 0
30.3574 0 0
30.4536 0 0
30.4536 0 0
30.5498 0 0
30.5498 0 0
30.646 0 0
30.646 0 0
30.7422 0 0
30.7422 0 0
30.8384 0 0
30.8384 0 0
30.9346 0 0
30.9346 0 0
31.0308 0 0
31.0308 0 0
31.127 0 0
31.127 0 0
31.2231 0 0
31.2231 0 0
31.3193 0 0
31.3193 0 0
31.4155 0 0
31.4155 0 0
31.5117 0 0
31.5117 0 0
31.6079 0 0
31.6079 0 0
31.7041 0 0
31.7041 0 0
31.8003 0 0
31.8003 0 0
31.8965 0 0
31.8965 0 0
31.9927 0 0
31.9927 0 0
32.0889 0 0
32.0889 0 0
32.1851 0 0
32.1851 0 0
32.2812 0 0
32.2812 0 0
32.3774 0 0
32.3774 0 0
32.4736 0 0
32.4736 0 0
32.5698 0 0
32.5698 0 0
32.666 0 0
32.666 0 0
32.7622 0 0
32.7622 0 0
32.8584 0 0
32.8584 0 0
32.9546 0 0
32.9546 0 0
33.0508 0 0
33.0508 0 0
33.147 0 0
33.147 0 0
33.2432 0 0
33.2432 0 0
33.3394 0 0
33.3394 0 0
33.4355 0 0
33.4355 0 0
33.5317 0 0
33.5317 0 0
33.6279 0 0
33.6279 0 0
33.7241 0 0
33.7241 0 0
33.8203 0 0
33.8203 0 0
33.9165 0 0
33.9165 0 0
34.0127 0 0
34.0127 0 0
34.1089 0 0
34.1089 0 0
34.2051 0 0
34.2051 0 0
34.3013 0 0
34.3013 0 0
34.3975 0 0
34.3975 0 0
34.4937 0 0
34.4937 0 0
34.5898 0 0
34.5898 0 0
34.686 0 0
34.686 0 0
34.7822 0 0
34.7822 0 0
34.8784 0 0
34.8784 0 0
34.9746 0 0
34.9746 0 0
35.0708 0 0
35.0708 0 0
35.167 0 0
35.167 0 0
35.2632 0 0
35.2632 0 0
35.3594 0 0
35.3594 0 0
35.4556 0 0
35.4556 0 0
35.5518 0 0
35.5518 0 0
35.6479 0 0
35.6479 0 0
35.7441 0 0
35.7441 0 0
35.8403 0 0
35.8403 0 0
35.9365 0 0
35.9365 0 0
36.0327 0 0
36.0327 0 0
36.1289 0 0
36.1289 0 0
36.2251 0 0
36.2251 0 0
36.3213 0 0
36.3213 0 0
36.4175 0 0
36.4175 0 0
36.5137 0 0
36.5137 0 0
36.6099 0 0
36.6099 0 0
36.7061 0 0
36.7061 0 0
36.8022 0 0
36.8022 0 0
36.8984 0 0
36.8984 0 0
36.9946 0 0
36.9946 0 0
37.0908 0 0
37.0908 0 0
37.187 0 0
37.187 0 0
37.2832 0 0
37.2832 0 0
37.3794 0 0
37.3794 0 0
37.4756 0 0
37.4756 0 0
37.5718 0 0
37.5718 0 0
37.668 0 0
37.668 0 0
37.7642 0 0
37.7642 0 0
37.8604 0 0
37.8604 0 0
37.9565 0 0
37.9565 0 0
38.0527 0 0
38.0527 0 0
38.1489 0 0
38.1489 0 0
38.2451 0 0
38.2451 0 0
38.3413 0 0
38.3413 0 0
38.4375 0 0
38.4375 0 0
38.5337 0 0
38.5337 0 0
38.6299 0 0
38.6299 0 0
38.7261 0 0
38.7261 0 0
38.8223 0 0
38.8223 0 0
38.9185 0 0
38.9185 0 0
39.0146 0 0
39.0146 0 0
39.1108 0 0
39.1108 0 0
39.207 0 0
39.207 0 0
39.3032 0 0
39.3032 0 0
39.3994 0 0
39.3994 0 0
39.4956 0 0
39.4956 0 0
39.5918 0 0
39.5918 0 0
39.688 0 0
39.688 0 0
39.7842 0 0
39.7842 0 0
39.8804 0 0
39.8804 0 0
39.9766 0 0
39.9766 0 0
40.0728 0 0
40.0728 0 0
40.1689 0 0
40.1689 0 0
40.2651 0 0
40.2651 0 0
40.3613 0 0
40.3613 0 0
40.4575 0 0
40.4575 0 0
40.5537 0 0
40.5537 0 0
40.6499 0 0
40.6499 0 0
40.7461 0 0
40.7461 0 0
40.8423 0 0
40.8423 0 0
40.9385 0 0
40.9385 0 0
41.0347 0 0
41.0347 0 0
41.1309 0 0
41.1309 0 0
41.2271 0 0
41.2271 0 0
[...]
POINT_DATA 2048
SCALARS solution_0 double 1
LOOKUP_TABLE default
-2.25087 -2.27561 -2.27561 -2.29241 -2.29241 -2.30262 -2.30262 -2.30724 -2.30724 -2.30702 -2.30702 -2.30256 -2.30256 -2.29433 -2.29433 -2.2827 -2.2827 -2.268 -2.268 -2.2505 -2.2505 -2.23044 -2.23044 -2.20801 -2.20801 -2.18341 -2.18341 -2.1568 -2.1568 -2.12833 -2.12833 -2.09815 -2.09815 -2.06638 -2.06638 -2.03315 -2.03315 -1.99858 -1.99858 -1.96278 -1.96278 -1.92586 -1.92586 -1.88791 -1.88791 -1.84905 -1.84905 -1.80935 -1.80935 -1.76892 -1.76892 -1.72784 -1.72784 -1.6862 -1.6862 -1.64409 -1.64409 -1.60157 -1.60157 -1.55874 -1.55874 -1.51567 -1.51567 -1.47242 -1.47242 -1.42908 -1.42908 -1.3857 -1.3857 -1.34236 -1.34236 -1.29912 -1.29912 -1.25603 -1.25603 -1.21316 -1.21316 -1.17055 -1.17055 -1.12828 -1.12828 -1.08637 -1.08637 -1.04489 -1.04489 -1.00387 -1.00387 -0.963368 -0.963368 -0.923411 -0.923411 -0.884041 -0.884041 -0.845293 -0.845293 -0.8072 -0.8072 -0.769791 -0.769791 -0.733095 -0.733095 -0.697136 -0.697136 -0.661937 -0.661937 -0.62752 -0.62752 -0.593901 -0.593901 -0.561098 -0.561098 -0.529124 -0.529124 -0.497991 -0.497991 -0.467708 -0.467708 -0.438284 -0.438284 -0.409723 -0.409723 -0.38203 -0.38203 -0.355206 -0.355206 -0.329253 -0.329253 -0.304169 -0.304169 -0.27995 -0.27995 -0.256593 -0.256593 -0.234091 -0.234091 -0.212438 -0.212438 -0.191624 -0.191624 -0.171641 -0.171641 -0.152477 -0.152477 -0.13412 -0.13412 -0.116558 -0.116558 -0.0997764 -0.0997764 -0.0837612 -0.0837612 -0.0684969 -0.0684969 -0.0539674 -0.0539674 -0.0401561 -0.0401561 -0.0270457 -0.0270457 -0.0146187 -0.0146187 -0.00285685 -0.00285685 0.00825816 0.00825816 0.0187451 0.0187451 0.0286229 0.0286229 0.0379108 0.0379108 0.0466279 0.0466279 0.0547936 0.0547936 0.0624273 0.0624273 0.0695483 0.0695483 0.0761758 0.0761758 0.082329 0.082329 0.0880269 0.0880269 0.0932883 0.0932883 0.0981318 0.0981318 0.102576 0.102576 0.106638 0.106638 0.110337 0.110337 0.113689 0.113689 0.116712 0.116712 0.119422 0.119422 0.121836 0.121836 0.123969 0.123969 0.125838 0.125838 0.127456 0.127456 0.128839 0.128839 0.13 0.13 0.130954 0.130954 0.131714 0.131714 0.132291 0.132291 0.132699 0.132699 0.132949 0.132949 0.133053 0.133053 0.133022 0.133022 0.132865 0.132865 0.132592 0.132592 0.132214 0.132214 0.13174 0.13174 0.131177 0.131177 0.130534 0.130534 0.129818 0.129818 0.129038 0.129038 0.1282 0.1282 0.12731 0.12731 0.126375 0.126375 0.1254 0.1254 0.124392 0.124392 0.123354 0.123354 0.122292 0.122292 0.12121 0.12121 0.120112 0.120112 0.119003 0.119003 0.117885 0.117885 0.116762 0.116762 0.115637 0.115637 0.114513 0.114513 0.113392 0.113392 0.112277 0.112277 0.111169 0.111169 0.11007 0.11007 0.108983 0.108983 0.107909 0.107909 0.106849 0.106849 0.105804 0.105804 0.104776 0.104776 0.103764 0.103764 0.102771 0.102771 0.101796 0.101796 0.100841 0.100841 0.0999055 0.0999055 0.0989898 0.0989898 0.0980944 0.0980944 0.0972194 0.0972194 0.0963649 0.0963649 0.0955309 0.0955309 0.0947175 0.0947175 0.0939244 0.0939244 0.0931516 0.0931516 0.0923989 0.0923989 0.0916659 0.0916659 0.0909525 0.0909525 0.0902584 0.0902584 0.0895831 0.0895831 0.0889264 0.0889264 0.0882879 0.0882879 0.0876671 0.0876671 0.0870637 0.0870637 0.0864773 0.0864773 0.0859073 0.0859073 0.0853534 0.0853534 0.0848152 0.0848152 0.084292 0.084292 0.0837837 0.0837837 0.0832896 0.0832896 0.0828093 0.0828093 0.0823424 0.0823424 0.0818885 0.0818885 0.081447 0.081447 0.0810177 0.0810177 0.0806 0.0806 0.0801936 0.0801936 0.0797981 0.0797981 0.079413 0.079413 0.079038 0.079038 0.0786727 0.0786727 0.0783167 0.0783167 0.0779698 0.0779698 0.0776315 0.0776315 0.0773015 0.0773015 0.0769796 0.0769796 0.0766653 0.0766653 0.0763584 0.0763584 0.0760587 0.0760587 0.0757657 0.0757657 0.0754794 0.0754794 0.0751993 0.0751993 0.0749253 0.0749253 0.0746571 0.0746571 0.0743946 0.0743946 0.0741374 0.0741374 0.0738853 0.0738853 0.0736383 0.0736383 0.073396 0.073396 0.0731583 0.0731583 0.0729251 0.0729251 0.0726961 0.0726961 0.0724712 0.0724712 0.0722502 0.0722502 0.0720331 0.0720331 0.0718196 0.0718196 0.0716096 0.0716096 0.071403 0.071403 0.0711997 0.0711997 0.0709996 0.0709996 0.0708025 0.0708025 0.0706084 0.0706084 0.0704171 0.0704171 0.0702286 0.0702286 0.0700427 0.0700427 0.0698595 0.0698595 0.0696787 0.0696787 0.0695003 0.0695003 0.0693244 0.0693244 0.0691506 0.0691506 0.0689791 0.0689791 0.0688097 0.0688097 0.0686425 0.0686425 0.0684772 0.0684772 0.0683139 0.0683139 0.0681525 0.0681525 0.067993 0.067993 0.0678353 0.0678353 0.0676794 0.0676794 0.0675251 0.0675251 0.0673726 0.0673726 0.0672217 0.0672217 0.0670725 0.0670725 0.0669247 0.0669247 0.0667785 0.0667785 0.0666339 0.0666339 0.0664906 0.0664906 0.0663488 0.0663488 0.0662084 0.0662084 0.0660694 0.0660694 0.0659317 0.0659317 0.0657954 0.0657954 0.0656603 0.0656603 0.0655265 0.0655265 0.0653939 0.0653939 0.0652626 0.0652626 0.0651324 0.0651324 0.0650034 0.0650034 0.0648756 0.0648756 0.064749 0.064749 0.0646234 0.0646234 0.0644989 0.0644989 0.0643755 0.0643755 0.0642532 0.0642532 0.0641319 0.0641319 0.0640117 0.0640117 0.0638924 0.0638924 0.0637742 0.0637742 0.0636569 0.0636569 0.0635406 0.0635406 0.0634252 0.0634252 0.0633108 0.0633108 0.0631973 0.0631973 0.0630847 0.0630847 0.0629731 0.0629731 0.0628623 0.0628623 0.0627523 0.0627523 0.0626433 0.0626433 0.0625351 0.0625351 0.0624277 0.0624277 0.0623212 0.0623212 0.0622154 0.0622154 0.0621105 0.0621105 0.0620064 0.0620064 0.0619031 0.0619031 0.0618005 0.0618005 0.0616987 0.0616987 0.0615977 0.0615977 0.0614974 0.0614974 0.0613978 0.0613978 0.061299 0.061299 0.0612009 0.0612009 0.0611035 0.0611035 0.0610068 0.0610068 0.0609108 0.0609108 0.0608155 0.0608155 0.0607209 0.0607209 0.060627 0.060627 0.0605337 0.0605337 0.0604411 0.0604411 0.0603491 0.0603491 0.0602578 0.0602578 0.0601671 0.0601671 0.060077 0.060077 0.0599876 0.0599876 0.0598988 0.0598988 0.0598106 0.0598106 0.059723 0.059723 0.059636 0.059636 0.0595495 0.0595495 0.0594637 0.0594637 0.0593785 0.0593785 0.0592938 0.0592938 0.0592097 0.0592097 0.0591261 0.0591261 0.0590431 0.0590431 0.0589607 0.0589607 0.0588788 0.0588788 0.0587974 0.0587974 0.0587166 0.0587166 0.0586363 0.0586363 0.0585565 0.0585565 0.0584772 0.0584772 0.0583985 0.0583985 0.0583203 0.0583203 0.0582425 0.0582425 0.0581653 0.0581653 0.0580886 0.0580886 0.0580123 0.0580123 0.0579366 0.0579366 0.0578613 0.0578613 0.0577865 0.0577865 0.0577122 0.0577122 0.0576383 0.0576383 0.0575649 0.0575649 0.057492 0.057492 0.0574195 0.0574195 0.0573475 0.0573475 0.0572759 0.0572759 0.0572048 0.0572048 0.0571341 0.0571341 0.0570638 0.0570638 0.056994 0.056994 0.0569246 0.0569246 0.0568556 0.0568556 0.0567871 0.0567871 0.0567189 0.0567189 0.0566512 0.0566512 0.0565839 0.0565839 0.056517 0.056517 0.0564505 0.0564505 0.0563844 0.0563844 0.0563187 0.0563187 0.0562534 0.0562534 0.0561885 0.0561885 0.056124 0.056124 0.0560598 0.0560598 0.0559961 0.0559961 0.0559327 0.0559327 0.0558697 0.0558697 0.0558071 0.0558071 0.0557448 0.0557448 0.0556829 0.0556829 0.0556214 0.0556214 0.0555602 0.0555602 0.0554994 0.0554994 0.0554389 0.0554389 0.0553788 0.0553788 0.0553191 0.0553191 0.0552596 0.0552596 0.0552006 0.0552006 0.0551418 0.0551418 0.0550835 0.0550835 0.0550254 0.0550254 0.0549677 0.0549677 0.0549103 0.0549103 0.0548532 0.0548532 0.0547965 0.0547965 0.0547401 0.0547401 0.054684 0.054684 0.0546282 0.0546282 0.0545728 0.0545728 0.0545176 0.0545176 0.0544628 0.0544628 0.0544083 0.0544083 0.0543541 0.0543541 0.0543002 0.0543002 0.0542466 0.0542466 0.0541933 0.0541933 0.0541403 0.0541403 0.0540875 0.0540875 0.0540351 0.0540351 0.053983 0.053983 0.0539312 0.0539312 0.0538796 0.0538796 0.0538284 0.0538284 0.0537774 0.0537774 0.0537267 0.0537267 0.0536763 0.0536763 0.0536261 0.0536261 0.0535763 0.0535763 0.0535267 0.0535267 0.0534774 0.0534774 0.0534283 0.0534283 0.0533795 0.0533795 0.053331 0.053331 0.0532828 0.0532828 0.0532348 0.0532348 0.053187 0.053187 0.0531396 0.0531396 0.0530924 0.0530924 0.0530454 0.0530454 0.0529987 0.0529987 0.0529522 0.0529522 0.052906 0.052906 0.0528601 0.0528601 0.0528144 0.0528144 0.0527689 0.0527689 0.0527237 0.0527237 0.0526787 0.0526787 0.052634 0.052634 0.0525895 0.0525895 0.0525452 0.0525452 0.0525012 0.0525012 0.0524574 0.0524574 0.0524138 0.0524138 0.0523705 0.0523705 0.0523274 0.0523274 0.0522845 0.0522845 0.0522419 0.0522419 0.0521994 0.0521994 0.0521572 0.0521572 0.0521152 0.0521152 0.0520735 0.0520735 0.0520319 0.0520319 0.0519906 0.0519906 0.0519495 0.0519495 0.0519086 0.0519086 0.0518679 0.0518679 0.0518274 0.0518274 0.0517872 0.0517872 0.0517471 0.0517471 0.0517073 0.0517073 0.0516676 0.0516676 0.0516282 0.0516282 0.051589 0.051589 0.0515499 0.0515499 0.0515111 0.0515111 0.0514725 0.0514725 0.051434 0.051434 0.0513958 0.0513958 0.0513578 0.0513578 0.0513199 0.0513199 0.0512822 0.0512822 0.0512448 0.0512448 0.0512075 0.0512075 0.0511704 0.0511704 0.0511335 0.0511335 0.0510968 0.0510968 0.0510603 0.0510603 0.051024 0.051024 0.0509878 0.0509878 0.0509518 0.0509518 0.050916 0.050916 0.0508804 0.0508804 0.050845 0.050845 0.0508097 0.0508097 0.0507746 0.0507746 0.0507397 0.0507397 0.050705 0.050705 0.0506704 0.0506704 0.0506361 0.0506361 0.0506018 0.0506018 0.0505678 0.0505678 0.0505339 0.0505339 0.0505002 0.0505002 0.0504667 0.0504667 0.0504333 0.0504333 0.0504001 0.0504001 0.050367 0.050367 0.0503341 0.0503341 0.0503014 0.0503014 0.0502688 0.0502688 0.0502364 0.0502364 0.0502042 0.0502042 0.0501721 0.0501721 0.0501401 0.0501401 0.0501083 0.0501083 0.0500767 0.0500767 0.0500452 0.0500452 0.0500139 0.0500139 0.0499827 0.0499827 0.0499517 0.0499517 0.0499208 0.0499208 0.0498901 0.0498901 0.0498595 0.0498595 0.0498291 0.0498291 0.0497988 0.0497988 0.0497687 0.0497687 0.0497387 0.0497387 0.0497088 0.0497088 0.0496791 0.0496791 0.0496495 0.0496495 0.0496201 0.0496201 0.0495908 0.0495908 0.0495616 0.0495616 0.0495326 0.0495326 0.0495037 0.0495037 0.0494749 0.0494749 0.0494463 0.0494463 0.0494178 0.0494178 0.0493895 0.0493895 0.0493613 0.0493613 0.0493332 0.0493332 0.0493052 0.0493052 0.0492774 0.0492774 0.0492497 0.0492497 0.0492221 0.0492221 0.0491947 0.0491947 0.0491673 0.0491673 0.0491401 0.0491401 0.0491131 0.0491131 0.0490861 0.0490861 0.0490593 0.0490593 0.0490326 0.0490326 0.049006 0.049006 0.0489795 0.0489795 0.0489532 0.0489532 0.0489269 0.0489269 0.0489008 0.0489008 0.0488748 0.0488748 0.0488489 0.0488489 0.0488232 0.0488232 0.0487975 0.0487975 0.048772 0.048772 0.0487465 0.0487465 0.0487212 0.0487212 0.048696 0.048696 0.0486709 0.0486709 0.0486459 0.0486459 0.048621 0.048621 0.0485963 0.0485963 0.0485716 0.0485716 0.048547 0.048547 0.0485226 0.0485226 0.0484982 0.0484982 0.048474 0.048474 0.0484498 0.0484498 0.0484258 0.0484258 0.0484018 0.0484018 0.048378 0.048378 0.0483543 0.0483543 0.0483306 0.0483306 0.0483071 0.0483071 0.0482836 0.0482836 0.0482603 0.0482603 0.048237 0.048237 0.0482138 0.0482138 0.0481908 0.0481908 0.0481678 0.0481678 0.0481449 0.0481449 0.0481221 0.0481221 0.0480994 0.0480994 0.0480768 0.0480768 0.0480543 0.0480543 0.0480319 0.0480319 0.0480095 0.0480095 0.0479873 0.0479873 0.0479651 0.0479651 0.047943 0.047943 0.047921 0.047921 0.0478991 0.0478991 0.0478773 0.0478773 0.0478555 0.0478555 0.0478339 0.0478339 0.0478123 0.0478123 0.0477908 0.0477908 0.0477693 0.0477693 0.047748 0.047748 0.0477267 0.0477267 0.0477055 0.0477055 0.0476844 0.0476844 0.0476634 0.0476634 0.0476424 0.0476424 0.0476215 0.0476215 0.0476007 0.0476007 0.0475799 0.0475799 0.0475593 0.0475593 0.0475387 0.0475387 0.0475181 0.0475181 0.0474977 0.0474977 0.0474773 0.0474773 0.047457 0.047457 0.0474367 0.0474367 0.0474165 0.0474165 0.0473964 0.0473964 0.0473763 0.0473763 0.0473563 0.0473563 0.0473364 0.0473364 0.0473165 0.0473165 0.0472967 0.0472967 0.0472769 0.0472769 0.0472573 0.0472573 0.0472376 0.0472376 0.0472181 0.0472181 0.0471985 0.0471985 0.0471791 0.0471791 0.0471597 0.0471597 0.0471403 0.0471403 0.047121 0.047121 0.0471018 0.0471018 0.0470826 0.0470826 0.0470635 0.0470635 0.0470444 0.0470444 0.0470254 0.0470254 0.0470064 0.0470064 0.0469874 0.0469874 0.0469686 0.0469686 0.0469497 0.0469497 0.0469309 0.0469309 0.0469122 0.0469122 0.0468935 0.0468935 0.0468748 0.0468748 0.0468562 0.0468562 0.0468376 0.0468376 0.0468191 0.0468191 0.0468006 0.0468006 0.0467821 0.0467821 0.0467637 0.0467637 0.0467453 0.0467453 0.046727 0.046727 0.0467087 0.0467087 0.0466904 0.0466904 0.0466722 0.0466722 0.0466539 0.0466539 0.0466358 0.0466358 0.0466176 0.0466176 0.0465995 0.0465995 0.0465814 0.0465814 0.0465634 0.0465634 0.0465453 0.0465453 0.0465273 0.0465273 0.0465093 0.0465093 0.0464914 0.0464914 0.0464735 0.0464735 0.0464555 0.0464555 0.0464377 0.0464377 0.0464198 0.0464198 0.0464019 0.0464019 0.0463841 0.0463841 0.0463663 0.0463663 0.0463485 0.0463485 0.0463307 0.0463307 0.0463129 0.0463129 0.0462952 0.0462952 0.0462774 0.0462774 0.0462597 0.0462597 0.046242 0.046242 0.0462243 0.0462243 0.0462065 0.0462065 0.0461888 0.0461888 0.0461712 0.0461712 0.0461535 0.0461535 0.0461358 0.0461358 0.0461181 0.0461181 0.0461004 0.0461004 0.0460827 0.0460827 0.046065 0.046065 0.0460473 0.0460473 0.0460296 0.0460296 0.0460119 0.0460119 0.0459942 0.0459942 0.0459765 0.0459765 0.0459588 0.0459588 0.045941 0.045941 0.0459233 0.0459233 0.0459055 0.0459055 0.0458878 0.0458878 0.04587 0.04587 0.0458522 0.0458522 0.0458343 0.0458343 0.0458165 0.0458165 0.0457986 0.0457986 0.0457807 0.0457807 0.0457628 0.0457628 0.0457449 0.0457449 0.0457269 0.0457269 0.0457089 0.0457089 0.0456909 0.0456909 0.0456729 0.0456729 0.0456548 0.0456548 0.0456367 0.0456367 0.0456185 0.0456185 0.0456003 0.0456003 0.0455821 0.0455821 0.0455638 0.0455638 0.0455455 0.0455455 0.0455272 0.0455272 0.0455088 0.0455088 0.0454903 0.0454903 0.0454718 0.0454718 0.0454533 0.0454533 0.0454347 0.0454347 0.045416 0.045416 0.0453973 0.0453973 0.0453786 0.0453786 0.0453597 0.0453597 0.0453409 0.0453409 0.0453219 0.0453219 0.0453029 0.0453029 0.0452838 0.0452838 0.0452647 0.0452647 0.0452455 0.0452455 0.0452262 0.0452262 0.0452068 0.0452068 0.0451874 0.0451874 0.0451679 0.0451679 0.0451483 0.0451483 0.0451286 0.0451286 0.0451088 0.0451088 0.045089 0.045089 0.0450691 0.0450691 0.045049 0.045049 0.0450289 0.0450289 0.0450087 0.0450087 0.0449884 0.0449884 0.0449679 0.0449679 0.0449474 0.0449474 0.0449268 0.0449268 0.0449061 0.0449061 0.0448852 0.0448852 0.0448643 0.0448643 0.0448432 0.0448432 0.044822 0.044822 0.0448007 0.0448007 0.0447792 0.0447792 0.0447577 0.0447577 0.044736 0.044736 0.0447142 0.0447142 0.0446922 0.0446922 0.0446701 0.0446701 0.0446479 0.0446479 0.0446255 0.0446255 0.044603 0.044603 0.0445803 0.0445803 0.0445575 0.0445575 0.0445345 0.0445345 0.0445114 0.0445114 0.0444881 0.0444881 0.0444646 0.0444646 0.044441 0.044441 0.0444172 0.0444172 0.0443932 0.0443932 0.0443691 0.0443691 0.0443447 0.0443447 0.0443202 0.0443202 0.0442955 0.0442955 0.0442706 0.0442706 0.0442455 0.0442455 0.0442202 0.0442202 0.0441947 0.0441947 0.0441689 0.0441689 0.044143 0.044143 0.0441169 0.0441169 0.0440905 0.0440905 0.0440639 0.0440639 0.0440371 0.0440371 0.04401 0.04401 0.0439827 0.0439827 0.0439552 0.0439552 0.0439274 0.0439274 0.0438994 0.0438994 0.0438711 0.0438711 0.0438425 0.0438425 0.0438137 0.0438137 0.0437846 0.0437846 0.0437553 0.0437553 0.0437256 0.0437256 0.0436957 0.0436957 0.0436655 0.0436655 0.0436349 0.0436349 0.0436041 0.0436041 0.043573 0.043573 0.0435415 0.0435415 0.0435098 0.0435098 0.0434777 0.0434777 0.0434453 0.0434453 0.0434125 0.0434125 0.0433794 0.0433794 0.043346 0.043346 0.0433122 0.0433122 0.043278 0.043278 0.0432435 0.0432435 0.0432086 0.0432086 0.0431733 0.0431733 0.0431376 0.0431376 0.0431015 0.0431015 0.0430651 0.0430651 0.0430282 0.0430282 0.0429909 0.0429909 0.0429532 0.0429532 0.042915 0.042915 0.0428765 0.0428765 0.0428374 0.0428374 0.042798 0.042798 0.042758 0.042758 0.0427176 0.0427176 0.0426767 0.0426767 0.0426354 0.0426354 0.0425935 0.0425935 0.0425512 0.0425512 0.0425083 0.0425083 0.0424649 0.0424649 0.042421 0.042421 0.0423765 0.0423765 0.0423315 0.0423315 0.042286 0.042286 0.0422399 0.0422399 0.0421932 0.0421932 0.0421459 0.0421459 0.0420981 0.0420981 0.0420496 0.0420496 0.0420005 0.0420005 0.0419508 0.0419508 0.0419005 0.0419005 0.0418495 0.0418495 0.0417979 0.0417979 0.0417456 0.0417456 0.0416927 0.0416927 0.041639 0.041639 0.0415846 0.0415846 0.0415295 0.0415295 0.0414737 0.0414737 0.0414172 0.0414172 0.0413599 0.0413599 0.0413018 0.0413018 0.041243 0.041243 0.0411833 0.0411833 0.0411228 0.0411228 0.0410615 0.0410615 0.0409994 0.0409994 0.0409364 0.0409364 0.0408725 0.0408725 0.0408077 0.0408077 0.040742 0.040742 0.0406753 0.0406753 0.0406076 0.0406076 0.040539 0.040539 0.0404693 0.0404693 0.0403986 0.0403986 0.0403269 0.0403269 0.040254 0.040254 0.04018 0.04018 0.0401048 0.0401048 0.0400284 0.0400284 0.0399508 0.0399508 0.0398719 0.0398719 0.0397917 0.0397917 0.0397101 0.0397101 0.0396271 0.0396271 0.0395426 0.0395426 0.0394566 0.0394566 0.0393689 0.0393689 0.0392797 0.0392797 0.0391887 0.0391887 0.0390959 0.0390959 0.0390013 0.0390013 0.0389047 0.0389047 0.0388061 0.0388061 0.0387053 0.0387053 0.0386023 0.0386023 0.038497 0.038497 0.0383892 0.0383892 0.0382788 0.0382788 0.0381658 0.0381658 0.0380498 0.0380498 0.0379309 0.0379309 0.0378089 0.0378089 0.0376835 0.0376835 0.0375546 0.0375546 0.037422 0.037422 0.0372856 0.0372856 0.0371451 0.0371451 0.0370002 0.0370002 0.0368508 0.0368508 0.0366966 0.0366966 0.0365373 0.0365373 0.0363726 0.0363726 0.0362023 0.0362023 0.036026 0.036026 0.0358434 0.0358434 0.0356541 0.0356541 0.0354579 0.0354579 0.0352542 0.0352542 0.0350427 0.0350427 0.034823 0.034823 0.0345946 0.0345946 0.034357 0.034357 0.0341098 0.0341098 0.0338525 0.0338525 0.0335844 0.0335844 0.0333051 0.0333051 0.033014 0.033014 0.0327104 0.0327104 0.0323938 0.0323938 0.0320634 0.0320634 0.0317186 0.0317186 0.0313587 0.0313587 0.030983 0.030983 0.0305907 0.0305907 0.030181 0.030181 0.0297531 0.0297531 0.0293062 0.0293062 0.0288395 0.0288395 0.028352 0.028352 0.0278429 0.0278429 0.0273112 0.0273112 0.026756 0.026756 0.0261764 0.0261764 0.0255714 0.0255714 0.02494 0.02494 0.0242811 0.0242811 0.0235938 0.0235938 0.0228771 0.0228771 0.0221298 0.0221298 0.0213509 0.0213509 0.0205395 0.0205395 0.0196944 0.0196944 0.0188145 0.0188145 0.0178989 0.0178989 0.0169465 0.0169465 0.0159563 0.0159563 0.0149273 0.0149273 0.0138585 0.0138585 0.0127488 0.0127488 0.0115975 0.0115975 0.0104036 0.0104036 0.00916623 0.00916623 0.00788458 0.00788458 0.00655789 0.00655789 0.00518547 0.00518547 0.00376667 0.00376667 0.00230091 0.00230091 0.000787702 0.000787702 -0.000773378 -0.000773378 -0.00238265 -0.00238265 -0.00404036 -0.00404036 -0.00574662 -0.00574662 -0.00750146 -0.00750146 -0.00930478 -0.00930478 -0.0111563 -0.0111563 -0.0130558 -0.0130558 -0.0150027 -0.0150027 -0.0169963 -0.0169963 -0.0190358 -0.0190358 -0.0211203 -0.0211203 -0.0232487 -0.0232487 -0.0254196 -0.0254196 -0.0276315 -0.0276315 -0.0298827 -0.0298827 -0.0321714 -0.0321714 -0.0344953 -0.0344953 -0.0368522 -0.0368522 -0.0392396 -0.0392396 -0.0416546 -0.0416546 -0.0440942 -0.0440942 -0.0465552 -0.0465552 -0.0490342 -0.0490342 -0.0515273 -0.0515273 -0.0540305 -0.0540305 -0.0565397 -0.0565397 -0.0590502 -0.0590502 -0.0615574 -0.0615574 -0.0640561 -0.0640561 -0.0665411 -0.0665411 -0.0690068 -0.0690068 -0.0714474 -0.0714474 -0.0738567 -0.0738567 -0.0762284 -0.0762284 -0.0785559 -0.0785559 -0.0808324 -0.0808324 -0.0830507 -0.0830507 -0.0852034 -0.0852034 -0.087283 -0.087283 -0.0892817 -0.0892817 -0.0911914 -0.0911914 -0.0930039 -0.0930039 -0.0947107 -0.0947107 -0.0963033 -0.0963033 -0.0977728 -0.0977728 -0.0991104 -0.0991104 -0.100307 -0.100307 -0.101353 -0.101353 -0.10224 -0.10224 -0.102958 -0.102958 -0.103498 -0.103498 -0.103849 -0.103849 -0.104004 -0.104004 -0.103951 -0.103951 -0.103682 -0.103682 -0.103188 -0.103188 -0.102459 -0.102459 -0.101485 -0.101485 -0.100258 -0.100258 -0.0987684 -0.0987684 -0.0970079 -0.0970079 -0.0949679 -0.0949679 -0.0926399 -0.0926399 -0.0900161 -0.0900161 -0.0870887 -0.0870887 -0.0838503 -0.0838503 -0.080294 -0.080294 -0.0764131 -0.0764131 -0.0722014 -0.0722014 -0.0676532 -0.0676532 -0.0627633 -0.0627633 -0.05752