# vtk DataFile Version 3.0
#This file was generated by the deal.II library on 2020/9/1 at 14:41:28
ASCII
DATASET UNSTRUCTURED_GRID

POINTS 2048 double
1.5 0 0
1.59619 0 0
1.59619 0 0
1.69238 0 0
1.69238 0 0
1.78857 0 0
1.78857 0 0
1.88477 0 0
1.88477 0 0
1.98096 0 0
1.98096 0 0
2.07715 0 0
2.07715 0 0
2.17334 0 0
2.17334 0 0
2.26953 0 0
2.26953 0 0
2.36572 0 0
2.36572 0 0
2.46191 0 0
2.46191 0 0
2.55811 0 0
2.55811 0 0
2.6543 0 0
2.6543 0 0
2.75049 0 0
2.75049 0 0
2.84668 0 0
2.84668 0 0
2.94287 0 0
2.94287 0 0
3.03906 0 0
3.03906 0 0
3.13525 0 0
3.13525 0 0
3.23145 0 0
3.23145 0 0
3.32764 0 0
3.32764 0 0
3.42383 0 0
3.42383 0 0
3.52002 0 0
3.52002 0 0
3.61621 0 0
3.61621 0 0
3.7124 0 0
3.7124 0 0
3.80859 0 0
3.80859 0 0
3.90479 0 0
3.90479 0 0
4.00098 0 0
4.00098 0 0
4.09717 0 0
4.09717 0 0
4.19336 0 0
4.19336 0 0
4.28955 0 0
4.28955 0 0
4.38574 0 0
4.38574 0 0
4.48193 0 0
4.48193 0 0
4.57812 0 0
4.57812 0 0
4.67432 0 0
4.67432 0 0
4.77051 0 0
4.77051 0 0
4.8667 0 0
4.8667 0 0
4.96289 0 0
4.96289 0 0
5.05908 0 0
5.05908 0 0
5.15527 0 0
5.15527 0 0
5.25146 0 0
5.25146 0 0
5.34766 0 0
5.34766 0 0
5.44385 0 0
5.44385 0 0
5.54004 0 0
5.54004 0 0
5.63623 0 0
5.63623 0 0
5.73242 0 0
5.73242 0 0
5.82861 0 0
5.82861 0 0
5.9248 0 0
5.9248 0 0
6.021 0 0
6.021 0 0
6.11719 0 0
6.11719 0 0
6.21338 0 0
6.21338 0 0
6.30957 0 0
6.30957 0 0
6.40576 0 0
6.40576 0 0
6.50195 0 0
6.50195 0 0
6.59814 0 0
6.59814 0 0
6.69434 0 0
6.69434 0 0
6.79053 0 0
6.79053 0 0
6.88672 0 0
6.88672 0 0
6.98291 0 0
6.98291 0 0
7.0791 0 0
7.0791 0 0
7.17529 0 0
7.17529 0 0
7.27148 0 0
7.27148 0 0
7.36768 0 0
7.36768 0 0
7.46387 0 0
7.46387 0 0
7.56006 0 0
7.56006 0 0
7.65625 0 0
7.65625 0 0
7.75244 0 0
7.75244 0 0
7.84863 0 0
7.84863 0 0
7.94482 0 0
7.94482 0 0
8.04102 0 0
8.04102 0 0
8.13721 0 0
8.13721 0 0
8.2334 0 0
8.2334 0 0
8.32959 0 0
8.32959 0 0
8.42578 0 0
8.42578 0 0
8.52197 0 0
8.52197 0 0
8.61816 0 0
8.61816 0 0
8.71436 0 0
8.71436 0 0
8.81055 0 0
8.81055 0 0
8.90674 0 0
8.90674 0 0
9.00293 0 0
9.00293 0 0
9.09912 0 0
9.09912 0 0
9.19531 0 0
9.19531 0 0
9.2915 0 0
9.2915 0 0
9.3877 0 0
9.3877 0 0
9.48389 0 0
9.48389 0 0
9.58008 0 0
9.58008 0 0
9.67627 0 0
9.67627 0 0
9.77246 0 0
9.77246 0 0
9.86865 0 0
9.86865 0 0
9.96484 0 0
9.96484 0 0
10.061 0 0
10.061 0 0
10.1572 0 0
10.1572 0 0
10.2534 0 0
10.2534 0 0
10.3496 0 0
10.3496 0 0
10.4458 0 0
10.4458 0 0
10.542 0 0
10.542 0 0
10.6382 0 0
10.6382 0 0
10.7344 0 0
10.7344 0 0
10.8306 0 0
10.8306 0 0
10.9268 0 0
10.9268 0 0
11.0229 0 0
11.0229 0 0
11.1191 0 0
11.1191 0 0
11.2153 0 0
11.2153 0 0
11.3115 0 0
11.3115 0 0
11.4077 0 0
11.4077 0 0
11.5039 0 0
11.5039 0 0
11.6001 0 0
11.6001 0 0
11.6963 0 0
11.6963 0 0
11.7925 0 0
11.7925 0 0
11.8887 0 0
11.8887 0 0
11.9849 0 0
11.9849 0 0
12.0811 0 0
12.0811 0 0
12.1772 0 0
12.1772 0 0
12.2734 0 0
12.2734 0 0
12.3696 0 0
12.3696 0 0
12.4658 0 0
12.4658 0 0
12.562 0 0
12.562 0 0
12.6582 0 0
12.6582 0 0
12.7544 0 0
12.7544 0 0
12.8506 0 0
12.8506 0 0
12.9468 0 0
12.9468 0 0
13.043 0 0
13.043 0 0
13.1392 0 0
13.1392 0 0
13.2354 0 0
13.2354 0 0
13.3315 0 0
13.3315 0 0
13.4277 0 0
13.4277 0 0
13.5239 0 0
13.5239 0 0
13.6201 0 0
13.6201 0 0
13.7163 0 0
13.7163 0 0
13.8125 0 0
13.8125 0 0
13.9087 0 0
13.9087 0 0
14.0049 0 0
14.0049 0 0
14.1011 0 0
14.1011 0 0
14.1973 0 0
14.1973 0 0
14.2935 0 0
14.2935 0 0
14.3896 0 0
14.3896 0 0
14.4858 0 0
14.4858 0 0
14.582 0 0
14.582 0 0
14.6782 0 0
14.6782 0 0
14.7744 0 0
14.7744 0 0
14.8706 0 0
14.8706 0 0
14.9668 0 0
14.9668 0 0
15.063 0 0
15.063 0 0
15.1592 0 0
15.1592 0 0
15.2554 0 0
15.2554 0 0
15.3516 0 0
15.3516 0 0
15.4478 0 0
15.4478 0 0
15.5439 0 0
15.5439 0 0
15.6401 0 0
15.6401 0 0
15.7363 0 0
15.7363 0 0
15.8325 0 0
15.8325 0 0
15.9287 0 0
15.9287 0 0
16.0249 0 0
16.0249 0 0
16.1211 0 0
16.1211 0 0
16.2173 0 0
16.2173 0 0
16.3135 0 0
16.3135 0 0
16.4097 0 0
16.4097 0 0
16.5059 0 0
16.5059 0 0
16.6021 0 0
16.6021 0 0
16.6982 0 0
16.6982 0 0
16.7944 0 0
16.7944 0 0
16.8906 0 0
16.8906 0 0
16.9868 0 0
16.9868 0 0
17.083 0 0
17.083 0 0
17.1792 0 0
17.1792 0 0
17.2754 0 0
17.2754 0 0
17.3716 0 0
17.3716 0 0
17.4678 0 0
17.4678 0 0
17.564 0 0
17.564 0 0
17.6602 0 0
17.6602 0 0
17.7563 0 0
17.7563 0 0
17.8525 0 0
17.8525 0 0
17.9487 0 0
17.9487 0 0
18.0449 0 0
18.0449 0 0
18.1411 0 0
18.1411 0 0
18.2373 0 0
18.2373 0 0
18.3335 0 0
18.3335 0 0
18.4297 0 0
18.4297 0 0
18.5259 0 0
18.5259 0 0
18.6221 0 0
18.6221 0 0
18.7183 0 0
18.7183 0 0
18.8145 0 0
18.8145 0 0
18.9106 0 0
18.9106 0 0
19.0068 0 0
19.0068 0 0
19.103 0 0
19.103 0 0
19.1992 0 0
19.1992 0 0
19.2954 0 0
19.2954 0 0
19.3916 0 0
19.3916 0 0
19.4878 0 0
19.4878 0 0
19.584 0 0
19.584 0 0
19.6802 0 0
19.6802 0 0
19.7764 0 0
19.7764 0 0
19.8726 0 0
19.8726 0 0
19.9688 0 0
19.9688 0 0
20.0649 0 0
20.0649 0 0
20.1611 0 0
20.1611 0 0
20.2573 0 0
20.2573 0 0
20.3535 0 0
20.3535 0 0
20.4497 0 0
20.4497 0 0
20.5459 0 0
20.5459 0 0
20.6421 0 0
20.6421 0 0
20.7383 0 0
20.7383 0 0
20.8345 0 0
20.8345 0 0
20.9307 0 0
20.9307 0 0
21.0269 0 0
21.0269 0 0
21.123 0 0
21.123 0 0
21.2192 0 0
21.2192 0 0
21.3154 0 0
21.3154 0 0
21.4116 0 0
21.4116 0 0
21.5078 0 0
21.5078 0 0
21.604 0 0
21.604 0 0
21.7002 0 0
21.7002 0 0
21.7964 0 0
21.7964 0 0
21.8926 0 0
21.8926 0 0
21.9888 0 0
21.9888 0 0
22.085 0 0
22.085 0 0
22.1812 0 0
22.1812 0 0
22.2773 0 0
22.2773 0 0
22.3735 0 0
22.3735 0 0
22.4697 0 0
22.4697 0 0
22.5659 0 0
22.5659 0 0
22.6621 0 0
22.6621 0 0
22.7583 0 0
22.7583 0 0
22.8545 0 0
22.8545 0 0
22.9507 0 0
22.9507 0 0
23.0469 0 0
23.0469 0 0
23.1431 0 0
23.1431 0 0
23.2393 0 0
23.2393 0 0
23.3354 0 0
23.3354 0 0
23.4316 0 0
23.4316 0 0
23.5278 0 0
23.5278 0 0
23.624 0 0
23.624 0 0
23.7202 0 0
23.7202 0 0
23.8164 0 0
23.8164 0 0
23.9126 0 0
23.9126 0 0
24.0088 0 0
24.0088 0 0
24.105 0 0
24.105 0 0
24.2012 0 0
24.2012 0 0
24.2974 0 0
24.2974 0 0
24.3936 0 0
24.3936 0 0
24.4897 0 0
24.4897 0 0
24.5859 0 0
24.5859 0 0
24.6821 0 0
24.6821 0 0
24.7783 0 0
24.7783 0 0
24.8745 0 0
24.8745 0 0
24.9707 0 0
24.9707 0 0
25.0669 0 0
25.0669 0 0
25.1631 0 0
25.1631 0 0
25.2593 0 0
25.2593 0 0
25.3555 0 0
25.3555 0 0
25.4517 0 0
25.4517 0 0
25.5479 0 0
25.5479 0 0
25.644 0 0
25.644 0 0
25.7402 0 0
25.7402 0 0
25.8364 0 0
25.8364 0 0
25.9326 0 0
25.9326 0 0
26.0288 0 0
26.0288 0 0
26.125 0 0
26.125 0 0
26.2212 0 0
26.2212 0 0
26.3174 0 0
26.3174 0 0
26.4136 0 0
26.4136 0 0
26.5098 0 0
26.5098 0 0
26.606 0 0
26.606 0 0
26.7021 0 0
26.7021 0 0
26.7983 0 0
26.7983 0 0
26.8945 0 0
26.8945 0 0
26.9907 0 0
26.9907 0 0
27.0869 0 0
27.0869 0 0
27.1831 0 0
27.1831 0 0
27.2793 0 0
27.2793 0 0
27.3755 0 0
27.3755 0 0
27.4717 0 0
27.4717 0 0
27.5679 0 0
27.5679 0 0
27.6641 0 0
27.6641 0 0
27.7603 0 0
27.7603 0 0
27.8564 0 0
27.8564 0 0
27.9526 0 0
27.9526 0 0
28.0488 0 0
28.0488 0 0
28.145 0 0
28.145 0 0
28.2412 0 0
28.2412 0 0
28.3374 0 0
28.3374 0 0
28.4336 0 0
28.4336 0 0
28.5298 0 0
28.5298 0 0
28.626 0 0
28.626 0 0
28.7222 0 0
28.7222 0 0
28.8184 0 0
28.8184 0 0
28.9146 0 0
28.9146 0 0
29.0107 0 0
29.0107 0 0
29.1069 0 0
29.1069 0 0
29.2031 0 0
29.2031 0 0
29.2993 0 0
29.2993 0 0
29.3955 0 0
29.3955 0 0
29.4917 0 0
29.4917 0 0
29.5879 0 0
29.5879 0 0
29.6841 0 0
29.6841 0 0
29.7803 0 0
29.7803 0 0
29.8765 0 0
29.8765 0 0
29.9727 0 0
29.9727 0 0
30.0688 0 0
30.0688 0 0
30.165 0 0
30.165 0 0
30.2612 0 0
30.2612 0 0
30.3574 0 0
30.3574 0 0
30.4536 0 0
30.4536 0 0
30.5498 0 0
30.5498 0 0
30.646 0 0
30.646 0 0
30.7422 0 0
30.7422 0 0
30.8384 0 0
30.8384 0 0
30.9346 0 0
30.9346 0 0
31.0308 0 0
31.0308 0 0
31.127 0 0
31.127 0 0
31.2231 0 0
31.2231 0 0
31.3193 0 0
31.3193 0 0
31.4155 0 0
31.4155 0 0
31.5117 0 0
31.5117 0 0
31.6079 0 0
31.6079 0 0
31.7041 0 0
31.7041 0 0
31.8003 0 0
31.8003 0 0
31.8965 0 0
31.8965 0 0
31.9927 0 0
31.9927 0 0
32.0889 0 0
32.0889 0 0
32.1851 0 0
32.1851 0 0
32.2812 0 0
32.2812 0 0
32.3774 0 0
32.3774 0 0
32.4736 0 0
32.4736 0 0
32.5698 0 0
32.5698 0 0
32.666 0 0
32.666 0 0
32.7622 0 0
32.7622 0 0
32.8584 0 0
32.8584 0 0
32.9546 0 0
32.9546 0 0
33.0508 0 0
33.0508 0 0
33.147 0 0
33.147 0 0
33.2432 0 0
33.2432 0 0
33.3394 0 0
33.3394 0 0
33.4355 0 0
33.4355 0 0
33.5317 0 0
33.5317 0 0
33.6279 0 0
33.6279 0 0
33.7241 0 0
33.7241 0 0
33.8203 0 0
33.8203 0 0
33.9165 0 0
33.9165 0 0
34.0127 0 0
34.0127 0 0
34.1089 0 0
34.1089 0 0
34.2051 0 0
34.2051 0 0
34.3013 0 0
34.3013 0 0
34.3975 0 0
34.3975 0 0
34.4937 0 0
34.4937 0 0
34.5898 0 0
34.5898 0 0
34.686 0 0
34.686 0 0
34.7822 0 0
34.7822 0 0
34.8784 0 0
34.8784 0 0
34.9746 0 0
34.9746 0 0
35.0708 0 0
35.0708 0 0
35.167 0 0
35.167 0 0
35.2632 0 0
35.2632 0 0
35.3594 0 0
35.3594 0 0
35.4556 0 0
35.4556 0 0
35.5518 0 0
35.5518 0 0
35.6479 0 0
35.6479 0 0
35.7441 0 0
35.7441 0 0
35.8403 0 0
35.8403 0 0
35.9365 0 0
35.9365 0 0
36.0327 0 0
36.0327 0 0
36.1289 0 0
36.1289 0 0
36.2251 0 0
36.2251 0 0
36.3213 0 0
36.3213 0 0
36.4175 0 0
36.4175 0 0
36.5137 0 0
36.5137 0 0
36.6099 0 0
36.6099 0 0
36.7061 0 0
36.7061 0 0
36.8022 0 0
36.8022 0 0
36.8984 0 0
36.8984 0 0
36.9946 0 0
36.9946 0 0
37.0908 0 0
37.0908 0 0
37.187 0 0
37.187 0 0
37.2832 0 0
37.2832 0 0
37.3794 0 0
37.3794 0 0
37.4756 0 0
37.4756 0 0
37.5718 0 0
37.5718 0 0
37.668 0 0
37.668 0 0
37.7642 0 0
37.7642 0 0
37.8604 0 0
37.8604 0 0
37.9565 0 0
37.9565 0 0
38.0527 0 0
38.0527 0 0
38.1489 0 0
38.1489 0 0
38.2451 0 0
38.2451 0 0
38.3413 0 0
38.3413 0 0
38.4375 0 0
38.4375 0 0
38.5337 0 0
38.5337 0 0
38.6299 0 0
38.6299 0 0
38.7261 0 0
38.7261 0 0
38.8223 0 0
38.8223 0 0
38.9185 0 0
38.9185 0 0
39.0146 0 0
39.0146 0 0
39.1108 0 0
39.1108 0 0
39.207 0 0
39.207 0 0
39.3032 0 0
39.3032 0 0
39.3994 0 0
39.3994 0 0
39.4956 0 0
39.4956 0 0
39.5918 0 0
39.5918 0 0
39.688 0 0
39.688 0 0
39.7842 0 0
39.7842 0 0
39.8804 0 0
39.8804 0 0
39.9766 0 0
39.9766 0 0
40.0728 0 0
40.0728 0 0
40.1689 0 0
40.1689 0 0
40.2651 0 0
40.2651 0 0
40.3613 0 0
40.3613 0 0
40.4575 0 0
40.4575 0 0
40.5537 0 0
40.5537 0 0
40.6499 0 0
40.6499 0 0
40.7461 0 0
40.7461 0 0
40.8423 0 0
40.8423 0 0
40.9385 0 0
40.9385 0 0
41.0347 0 0
41.0347 0 0
41.1309 0 0
41.1309 0 0
41.2271 0 0
41.2271 0 0
[...]
POINT_DATA 2048
SCALARS solution_0 double 1
LOOKUP_TABLE default
1.26671 1.21062 1.21062 1.15459 1.15459 1.09853 1.09853 1.04237 1.04237 0.986071 0.986071 0.929571 0.929571 0.872839 0.872839 0.81585 0.81585 0.758588 0.758588 0.701046 0.701046 0.643224 0.643224 0.58513 0.58513 0.526775 0.526775 0.468176 0.468176 0.409355 0.409355 0.350338 0.350338 0.291152 0.291152 0.231829 0.231829 0.172402 0.172402 0.112907 0.112907 0.0533822 0.0533822 -0.00613379 -0.00613379 -0.0656003 -0.0656003 -0.124976 -0.124976 -0.184217 -0.184217 -0.243281 -0.243281 -0.302124 -0.302124 -0.360702 -0.360702 -0.418968 -0.418968 -0.47688 -0.47688 -0.534391 -0.534391 -0.591457 -0.591457 -0.648033 -0.648033 -0.704074 -0.704074 -0.759537 -0.759537 -0.814377 -0.814377 -0.868553 -0.868553 -0.92202 -0.92202 -0.974738 -0.974738 -1.02667 -1.02667 -1.07776 -1.07776 -1.12799 -1.12799 -1.17732 -1.17732 -1.22569 -1.22569 -1.27309 -1.27309 -1.31948 -1.31948 -1.36482 -1.36482 -1.40907 -1.40907 -1.45222 -1.45222 -1.49423 -1.49423 -1.53507 -1.53507 -1.57472 -1.57472 -1.61316 -1.61316 -1.65035 -1.65035 -1.68627 -1.68627 -1.72092 -1.72092 -1.75426 -1.75426 -1.78629 -1.78629 -1.81698 -1.81698 -1.84632 -1.84632 -1.87431 -1.87431 -1.90092 -1.90092 -1.92616 -1.92616 -1.95001 -1.95001 -1.97247 -1.97247 -1.99353 -1.99353 -2.0132 -2.0132 -2.03147 -2.03147 -2.04834 -2.04834 -2.06382 -2.06382 -2.07791 -2.07791 -2.09062 -2.09062 -2.10194 -2.10194 -2.1119 -2.1119 -2.1205 -2.1205 -2.12776 -2.12776 -2.13368 -2.13368 -2.13828 -2.13828 -2.14157 -2.14157 -2.14357 -2.14357 -2.14431 -2.14431 -2.14379 -2.14379 -2.14204 -2.14204 -2.13909 -2.13909 -2.13494 -2.13494 -2.12963 -2.12963 -2.12318 -2.12318 -2.11561 -2.11561 -2.10696 -2.10696 -2.09724 -2.09724 -2.08648 -2.08648 -2.07472 -2.07472 -2.06198 -2.06198 -2.04829 -2.04829 -2.03368 -2.03368 -2.01818 -2.01818 -2.00182 -2.00182 -1.98463 -1.98463 -1.96665 -1.96665 -1.9479 -1.9479 -1.92842 -1.92842 -1.90824 -1.90824 -1.88739 -1.88739 -1.86591 -1.86591 -1.84382 -1.84382 -1.82115 -1.82115 -1.79795 -1.79795 -1.77424 -1.77424 -1.75006 -1.75006 -1.72543 -1.72543 -1.70039 -1.70039 -1.67496 -1.67496 -1.64919 -1.64919 -1.6231 -1.6231 -1.59672 -1.59672 -1.57008 -1.57008 -1.54321 -1.54321 -1.51613 -1.51613 -1.48889 -1.48889 -1.4615 -1.4615 -1.43399 -1.43399 -1.4064 -1.4064 -1.37873 -1.37873 -1.35103 -1.35103 -1.32332 -1.32332 -1.29561 -1.29561 -1.26794 -1.26794 -1.24033 -1.24033 -1.21279 -1.21279 -1.18536 -1.18536 -1.15804 -1.15804 -1.13087 -1.13087 -1.10386 -1.10386 -1.07703 -1.07703 -1.0504 -1.0504 -1.02397 -1.02397 -0.997785 -0.997785 -0.971841 -0.971841 -0.946159 -0.946159 -0.920751 -0.920751 -0.895632 -0.895632 -0.870814 -0.870814 -0.846309 -0.846309 -0.822128 -0.822128 -0.798281 -0.798281 -0.774779 -0.774779 -0.75163 -0.75163 -0.728842 -0.728842 -0.706424 -0.706424 -0.684382 -0.684382 -0.662722 -0.662722 -0.64145 -0.64145 -0.620571 -0.620571 -0.60009 -0.60009 -0.58001 -0.58001 -0.560334 -0.560334 -0.541066 -0.541066 -0.522207 -0.522207 -0.503758 -0.503758 -0.485722 -0.485722 -0.468098 -0.468098 -0.450886 -0.450886 -0.434087 -0.434087 -0.417698 -0.417698 -0.401719 -0.401719 -0.386149 -0.386149 -0.370984 -0.370984 -0.356222 -0.356222 -0.341862 -0.341862 -0.327898 -0.327898 -0.314328 -0.314328 -0.301148 -0.301148 -0.288354 -0.288354 -0.275941 -0.275941 -0.263905 -0.263905 -0.252241 -0.252241 -0.240943 -0.240943 -0.230006 -0.230006 -0.219425 -0.219425 -0.209194 -0.209194 -0.199306 -0.199306 -0.189757 -0.189757 -0.18054 -0.18054 -0.171648 -0.171648 -0.163075 -0.163075 -0.154814 -0.154814 -0.14686 -0.14686 -0.139204 -0.139204 -0.131842 -0.131842 -0.124765 -0.124765 -0.117968 -0.117968 -0.111442 -0.111442 -0.105183 -0.105183 -0.0991815 -0.0991815 -0.0934323 -0.0934323 -0.0879282 -0.0879282 -0.0826625 -0.0826625 -0.0776285 -0.0776285 -0.0728194 -0.0728194 -0.0682286 -0.0682286 -0.0638497 -0.0638497 -0.0596759 -0.0596759 -0.0557011 -0.0557011 -0.0519186 -0.0519186 -0.0483224 -0.0483224 -0.0449062 -0.0449062 -0.0416639 -0.0416639 -0.0385895 -0.0385895 -0.0356771 -0.0356771 -0.0329209 -0.0329209 -0.0303152 -0.0303152 -0.0278544 -0.0278544 -0.025533 -0.025533 -0.0233456 -0.0233456 -0.0212871 -0.0212871 -0.0193523 -0.0193523 -0.0175361 -0.0175361 -0.0158338 -0.0158338 -0.0142404 -0.0142404 -0.0127514 -0.0127514 -0.0113622 -0.0113622 -0.0100684 -0.0100684 -0.00886575 -0.00886575 -0.00775007 -0.00775007 -0.00671732 -0.00671732 -0.00576357 -0.00576357 -0.00488503 -0.00488503 -0.00407801 -0.00407801 -0.00333894 -0.00333894 -0.00266438 -0.00266438 -0.00205099 -0.00205099 -0.00149555 -0.00149555 -0.000994967 -0.000994967 -0.000546233 -0.000546233 -0.000146464 -0.000146464 0.000207121 0.000207121 0.000517195 0.000517195 0.000786331 0.000786331 0.001017 0.001017 0.00121157 0.00121157 0.00137232 0.00137232 0.00150144 0.00150144 0.001601 0.001601 0.001673 0.001673 0.00171937 0.00171937 0.00174191 0.00174191 0.00174238 0.00174238 0.00172244 0.00172244 0.00168366 0.00168366 0.00162756 0.00162756 0.00155556 0.00155556 0.00146904 0.00146904 0.00136927 0.00136927 0.0012575 0.0012575 0.00113487 0.00113487 0.00100248 0.00100248 0.000861386 0.000861386 0.000712553 0.000712553 0.00055691 0.00055691 0.000395327 0.000395327 0.000228624 0.000228624 5.75702e-05 5.75702e-05 -0.000117113 -0.000117113 -0.000294748 -0.000294748 -0.000474704 -0.000474704 -0.000656389 -0.000656389 -0.000839254 -0.000839254 -0.00102278 -0.00102278 -0.00120651 -0.00120651 -0.00138998 -0.00138998 -0.00157279 -0.00157279 -0.00175458 -0.00175458 -0.00193498 -0.00193498 -0.00211369 -0.00211369 -0.0022904 -0.0022904 -0.00246487 -0.00246487 -0.00263685 -0.00263685 -0.00280612 -0.00280612 -0.00297248 -0.00297248 -0.00313577 -0.00313577 -0.00329583 -0.00329583 -0.00345251 -0.00345251 -0.00360571 -0.00360571 -0.00375531 -0.00375531 -0.00390123 -0.00390123 -0.0040434 -0.0040434 -0.00418175 -0.00418175 -0.00431623 -0.00431623 -0.00444682 -0.00444682 -0.00457347 -0.00457347 -0.00469619 -0.00469619 -0.00481495 -0.00481495 -0.00492977 -0.00492977 -0.00504064 -0.00504064 -0.0051476 -0.0051476 -0.00525065 -0.00525065 -0.00534984 -0.00534984 -0.00544519 -0.00544519 -0.00553676 -0.00553676 -0.00562457 -0.00562457 -0.00570869 -0.00570869 -0.00578916 -0.00578916 -0.00586604 -0.00586604 -0.00593939 -0.00593939 -0.00600927 -0.00600927 -0.00607575 -0.00607575 -0.00613889 -0.00613889 -0.00619876 -0.00619876 -0.00625542 -0.00625542 -0.00630896 -0.00630896 -0.00635943 -0.00635943 -0.00640691 -0.00640691 -0.00645147 -0.00645147 -0.00649319 -0.00649319 -0.00653213 -0.00653213 -0.00656837 -0.00656837 -0.00660198 -0.00660198 -0.00663304 -0.00663304 -0.0066616 -0.0066616 -0.00668775 -0.00668775 -0.00671155 -0.00671155 -0.00673307 -0.00673307 -0.00675239 -0.00675239 -0.00676956 -0.00676956 -0.00678465 -0.00678465 -0.00679773 -0.00679773 -0.00680886 -0.00680886 -0.0068181 -0.0068181 -0.00682552 -0.00682552 -0.00683118 -0.00683118 -0.00683513 -0.00683513 -0.00683744 -0.00683744 -0.00683815 -0.00683815 -0.00683732 -0.00683732 -0.00683502 -0.00683502 -0.00683128 -0.00683128 -0.00682616 -0.00682616 -0.00681971 -0.00681971 -0.00681198 -0.00681198 -0.00680302 -0.00680302 -0.00679286 -0.00679286 -0.00678156 -0.00678156 -0.00676916 -0.00676916 -0.00675569 -0.00675569 -0.00674121 -0.00674121 -0.00672574 -0.00672574 -0.00670934 -0.00670934 -0.00669202 -0.00669202 -0.00667383 -0.00667383 -0.00665481 -0.00665481 -0.00663499 -0.00663499 -0.00661439 -0.00661439 -0.00659306 -0.00659306 -0.00657101 -0.00657101 -0.00654829 -0.00654829 -0.00652491 -0.00652491 -0.00650091 -0.00650091 -0.0064763 -0.0064763 -0.00645113 -0.00645113 -0.0064254 -0.0064254 -0.00639915 -0.00639915 -0.00637239 -0.00637239 -0.00634515 -0.00634515 -0.00631745 -0.00631745 -0.00628931 -0.00628931 -0.00626074 -0.00626074 -0.00623178 -0.00623178 -0.00620243 -0.00620243 -0.00617271 -0.00617271 -0.00614264 -0.00614264 -0.00611224 -0.00611224 -0.00608151 -0.00608151 -0.00605049 -0.00605049 -0.00601917 -0.00601917 -0.00598757 -0.00598757 -0.00595572 -0.00595572 -0.00592361 -0.00592361 -0.00589126 -0.00589126 -0.00585869 -0.00585869 -0.0058259 -0.0058259 -0.0057929 -0.0057929 -0.00575972 -0.00575972 -0.00572634 -0.00572634 -0.0056928 -0.0056928 -0.00565909 -0.00565909 -0.00562522 -0.00562522 -0.0055912 -0.0055912 -0.00555705 -0.00555705 -0.00552276 -0.00552276 -0.00548835 -0.00548835 -0.00545383 -0.00545383 -0.00541919 -0.00541919 -0.00538445 -0.00538445 -0.00534962 -0.00534962 -0.0053147 -0.0053147 -0.00527969 -0.00527969 -0.00524461 -0.00524461 -0.00520945 -0.00520945 -0.00517423 -0.00517423 -0.00513895 -0.00513895 -0.00510361 -0.00510361 -0.00506822 -0.00506822 -0.00503278 -0.00503278 -0.00499731 -0.00499731 -0.00496179 -0.00496179 -0.00492625 -0.00492625 -0.00489068 -0.00489068 -0.00485508 -0.00485508 -0.00481947 -0.00481947 -0.00478384 -0.00478384 -0.0047482 -0.0047482 -0.00471255 -0.00471255 -0.0046769 -0.0046769 -0.00464124 -0.00464124 -0.0046056 -0.0046056 -0.00456995 -0.00456995 -0.00453433 -0.00453433 -0.00449871 -0.00449871 -0.00446311 -0.00446311 -0.00442754 -0.00442754 -0.00439199 -0.00439199 -0.00435647 -0.00435647 -0.00432098 -0.00432098 -0.00428553 -0.00428553 -0.00425012 -0.00425012 -0.00421476 -0.00421476 -0.00417944 -0.00417944 -0.00414417 -0.00414417 -0.00410895 -0.00410895 -0.0040738 -0.0040738 -0.00403871 -0.00403871 -0.00400368 -0.00400368 -0.00396872 -0.00396872 -0.00393384 -0.00393384 -0.00389904 -0.00389904 -0.00386432 -0.00386432 -0.00382969 -0.00382969 -0.00379515 -0.00379515 -0.00376071 -0.00376071 -0.00372636 -0.00372636 -0.00369212 -0.00369212 -0.003658 -0.003658 -0.00362398 -0.00362398 -0.00359008 -0.00359008 -0.00355631 -0.00355631 -0.00352267 -0.00352267 -0.00348915 -0.00348915 -0.00345578 -0.00345578 -0.00342254 -0.00342254 -0.00338945 -0.00338945 -0.00335651 -0.00335651 -0.00332372 -0.00332372 -0.00329109 -0.00329109 -0.00325862 -0.00325862 -0.00322631 -0.00322631 -0.00319417 -0.00319417 -0.00316219 -0.00316219 -0.00313039 -0.00313039 -0.00309876 -0.00309876 -0.0030673 -0.0030673 -0.00303602 -0.00303602 -0.00300491 -0.00300491 -0.00297397 -0.00297397 -0.00294319 -0.00294319 -0.00291259 -0.00291259 -0.00288215 -0.00288215 -0.00285187 -0.00285187 -0.00282175 -0.00282175 -0.00279177 -0.00279177 -0.00276193 -0.00276193 -0.00273222 -0.00273222 -0.00270263 -0.00270263 -0.00267315 -0.00267315 -0.00264376 -0.00264376 -0.00261446 -0.00261446 -0.00258523 -0.00258523 -0.00255604 -0.00255604 -0.00252689 -0.00252689 -0.00249775 -0.00249775 -0.00246859 -0.00246859 -0.00243941 -0.00243941 -0.00241016 -0.00241016 -0.00238083 -0.00238083 -0.00235139 -0.00235139 -0.00232182 -0.00232182 -0.00229207 -0.00229207 -0.00226211 -0.00226211 -0.00223193 -0.00223193 -0.00220147 -0.00220147 -0.00217071 -0.00217071 -0.00213961 -0.00213961 -0.00210813 -0.00210813 -0.00207624 -0.00207624 -0.00204389 -0.00204389 -0.00201104 -0.00201104 -0.00197767 -0.00197767 -0.00194372 -0.00194372 -0.00190915 -0.00190915 -0.00187393 -0.00187393 -0.00183802 -0.00183802 -0.00180138 -0.00180138 -0.00176396 -0.00176396 -0.00172574 -0.00172574 -0.00168667 -0.00168667 -0.00164671 -0.00164671 -0.00160584 -0.00160584 -0.00156403 -0.00156403 -0.00152123 -0.00152123 -0.00147742 -0.00147742 -0.00143259 -0.00143259 -0.00138669 -0.00138669 -0.00133971 -0.00133971 -0.00129163 -0.00129163 -0.00124244 -0.00124244 -0.00119212 -0.00119212 -0.00114066 -0.00114066 -0.00108805 -0.00108805 -0.00103431 -0.00103431 -0.000979414 -0.000979414 -0.000923381 -0.000923381 -0.000866216 -0.000866216 -0.000807933 -0.000807933 -0.000748546 -0.000748546 -0.000688077 -0.000688077 -0.000626551 -0.000626551 -0.000563994 -0.000563994 -0.000500441 -0.000500441 -0.000435927 -0.000435927 -0.000370492 -0.000370492 -0.000304181 -0.000304181 -0.000237041 -0.000237041 -0.000169123 -0.000169123 -0.000100483 -0.000100483 -3.11785e-05 -3.11785e-05 3.87291e-05 3.87291e-05 0.000109175 0.000109175 0.000180093 0.000180093 0.000251413 0.000251413 0.000323062 0.000323062 0.000394966 0.000394966 0.000467049 0.000467049 0.000539233 0.000539233 0.000611438 0.000611438 0.000683585 0.000683585 0.000755593 0.000755593 0.000827378 0.000827378 0.00089886 0.00089886 0.000969957 0.000969957 0.00104059 0.00104059 0.00111067 0.00111067 0.00118012 0.00118012 0.00124887 0.00124887 0.00131683 0.00131683 0.00138393 0.00138393 0.0014501 0.0014501 0.00151526 0.00151526 0.00157936 0.00157936 0.00164231 0.00164231 0.00170406 0.00170406 0.00176456 0.00176456 0.00182373 0.00182373 0.00188154 0.00188154 0.00193794 0.00193794 0.00199288 0.00199288 0.00204631 0.00204631 0.00209822 0.00209822 0.00214855 0.00214855 0.0021973 0.0021973 0.00224443 0.00224443 0.00228993 0.00228993 0.00233379 0.00233379 0.002376 0.002376 0.00241656 0.00241656 0.00245546 0.00245546 0.00249273 0.00249273 0.00252835 0.00252835 0.00256236 0.00256236 0.00259478 0.00259478 0.00262562 0.00262562 0.00265491 0.00265491 0.00268269 0.00268269 0.002709 0.002709 0.00273387 0.00273387 0.00275735 0.00275735 0.00277948 0.00277948 0.00280032 0.00280032 0.00281991 0.00281991 0.00283832 0.00283832 0.0028556 0.0028556 0.00287181 0.00287181 0.00288701 0.00288701 0.00290127 0.00290127 0.00291464 0.00291464 0.00292721 0.00292721 0.00293903 0.00293903 0.00295017 0.00295017 0.00296069 0.00296069 0.00297068 0.00297068 0.00298019 0.00298019 0.0029893 0.0029893 0.00299807 0.00299807 0.00300656 0.00300656 0.00301485 0.00301485 0.00302299 0.00302299 0.00303106 0.00303106 0.00303911 0.00303911 0.0030472 0.0030472 0.00305539 0.00305539 0.00306374 0.00306374 0.00307231 0.00307231 0.00308114 0.00308114 0.00309028 0.00309028 0.00309978 0.00309978 0.0031097 0.0031097 0.00312006 0.00312006 0.00313091 0.00313091 0.00314229 0.00314229 0.00315424 0.00315424 0.00316678 0.00316678 0.00317995 0.00317995 0.00319377 0.00319377 0.00320827 0.00320827 0.00322348 0.00322348 0.0032394 0.0032394 0.00325606 0.00325606 0.00327348 0.00327348 0.00329167 0.00329167 0.00331063 0.00331063 0.00333038 0.00333038 0.00335093 0.00335093 0.00337227 0.00337227 0.00339441 0.00339441 0.00341736 0.00341736 0.00344111 0.00344111 0.00346566 0.00346566 0.003491 0.003491 0.00351714 0.00351714 0.00354406 0.00354406 0.00357175 0.00357175 0.00360022 0.00360022 0.00362945 0.00362945 0.00365942 0.00365942 0.00369013 0.00369013 0.00372157 0.00372157 0.00375372 0.00375372 0.00378658 0.00378658 0.00382012 0.00382012 0.00385433 0.00385433 0.00388921 0.00388921 0.00392473 0.00392473 0.00396089 0.00396089 0.00399766 0.00399766 0.00403503 0.00403503 0.004073 0.004073 0.00411153 0.00411153 0.00415064 0.00415064 0.00419028 0.00419028 0.00423047 0.00423047 0.00427117 0.00427117 0.00431239 0.00431239 0.0043541 0.0043541 0.00439629 0.00439629 0.00443896 0.00443896 0.00448209 0.00448209 0.00452567 0.00452567 0.00456969 0.00456969 0.00461414 0.00461414 0.00465902 0.00465902 0.0047043 0.0047043 0.00474999 0.00474999 0.00479608 0.00479608 0.00484256 0.00484256 0.00488943 0.00488943 0.00493666 0.00493666 0.00498427 0.00498427 0.00503225 0.00503225 0.00508059 0.00508059 0.00512928 0.00512928 0.00517833 0.00517833 0.00522773 0.00522773 0.00527747 0.00527747 0.00532756 0.00532756 0.00537799 0.00537799 0.00542876 0.00542876 0.00547987 0.00547987 0.00553132 0.00553132 0.00558311 0.00558311 0.00563523 0.00563523 0.00568769 0.00568769 0.00574049 0.00574049 0.00579363 0.00579363 0.00584712 0.00584712 0.00590094 0.00590094 0.00595511 0.00595511 0.00600963 0.00600963 0.00606449 0.00606449 0.00611971 0.00611971 0.00617529 0.00617529 0.00623122 0.00623122 0.00628751 0.00628751 0.00634417 0.00634417 0.0064012 0.0064012 0.00645861 0.00645861 0.00651639 0.00651639 0.00657456 0.00657456 0.00663312 0.00663312 0.00669207 0.00669207 0.00675142 0.00675142 0.00681117 0.00681117 0.00687134 0.00687134 0.00693192 0.00693192 0.00699293 0.00699293 0.00705437 0.00705437 0.00711625 0.00711625 0.00717857 0.00717857 0.00724133 0.00724133 0.00730456 0.00730456 0.00736825 0.00736825 0.00743242 0.00743242 0.00749707 0.00749707 0.0075622 0.0075622 0.00762784 0.00762784 0.00769398 0.00769398 0.00776063 0.00776063 0.00782781 0.00782781 0.00789552 0.00789552 0.00796377 0.00796377 0.00803257 0.00803257 0.00810193 0.00810193 0.00817186 0.00817186 0.00824237 0.00824237 0.00831348 0.00831348 0.00838518 0.00838518 0.00845749 0.00845749 0.00853043 0.00853043 0.008604 0.008604 0.00867821 0.00867821 0.00875308 0.00875308 0.00882862 0.00882862 0.00890484 0.00890484 0.00898174 0.00898174 0.00905935 0.00905935 0.00913768 0.00913768 0.00921673 0.00921673 0.00929652 0.00929652 0.00937707 0.00937707 0.00945838 0.00945838 0.00954048 0.00954048 0.00962337 0.00962337 0.00970706 0.00970706 0.00979158 0.00979158 0.00987693 0.00987693 0.00996313 0.00996313 0.0100502 0.0100502 0.0101381 0.0101381 0.010227 0.010227 0.0103167 0.0103167 0.0104074 0.0104074 0.010499 0.010499 0.0105916 0.0105916 0.0106851 0.0106851 0.0107797 0.0107797 0.0108752 0.0108752 0.0109718 0.0109718 0.0110694 0.0110694 0.011168 0.011168 0.0112677 0.0112677 0.0113685 0.0113685 0.0114704 0.0114704 0.0115734 0.0115734 0.0116776 0.0116776 0.0117829 0.0117829 0.0118894 0.0118894 0.0119971 0.0119971 0.012106 0.012106 0.0122161 0.0122161 0.0123275 0.0123275 0.0124401 0.0124401 0.012554 0.012554 0.0126693 0.0126693 0.0127858 0.0127858 0.0129037 0.0129037 0.0130229 0.0130229 0.0131435 0.0131435 0.0132655 0.0132655 0.0133889 0.0133889 0.0135138 0.0135138 0.0136401 0.0136401 0.0137678 0.0137678 0.0138971 0.0138971 0.0140279 0.0140279 0.0141602 0.0141602 0.014294 0.014294 0.0144295 0.0144295 0.0145665 0.0145665 0.0147051 0.0147051 0.0148453 0.0148453 0.0149872 0.0149872 0.0151308 0.0151308 0.0152761 0.0152761 0.015423 0.015423 0.0155717 0.0155717 0.0157222 0.0157222 0.0158744 0.0158744 0.0160284 0.0160284 0.0161842 0.0161842 0.0163419 0.0163419 0.0165014 0.0165014 0.0166628 0.0166628 0.0168262 0.0168262 0.0169914 0.0169914 0.0171586 0.0171586 0.0173277 0.0173277 0.0174989 0.0174989 0.0176721 0.0176721 0.0178473 0.0178473 0.0180246 0.0180246 0.018204 0.018204 0.0183855 0.0183855 0.0185692 0.0185692 0.018755 0.018755 0.0189431 0.0189431 0.0191334 0.0191334 0.0193259 0.0193259 0.0195207 0.0195207 0.0197179 0.0197179 0.0199174 0.0199174 0.0201193 0.0201193 0.0203237 0.0203237 0.0205305 0.0205305 0.0207398 0.0207398 0.0209516 0.0209516 0.021166 0.021166 0.0213831 0.0213831 0.0216028 0.0216028 0.0218251 0.0218251 0.0220503 0.0220503 0.0222782 0.0222782 0.022509 0.022509 0.0227426 0.0227426 0.0229792 0.0229792 0.0232188 0.0232188 0.0234615 0.0234615 0.0237073 0.0237073 0.0239562 0.0239562 0.0242084 0.0242084 0.0244638 0.0244638 0.0247227 0.0247227 0.0249849 0.0249849 0.0252507 0.0252507 0.02552 0.02552 0.025793 0.025793 0.0260697 0.0260697 0.0263503 0.0263503 0.0266347 0.0266347 0.0269232 0.0269232 0.0272157 0.0272157 0.0275123 0.0275123 0.0278133 0.0278133 0.0281185 0.0281185 0.0284283 0.0284283 0.0287426 0.0287426 0.0290616 0.0290616 0.0293853 0.0293853 0.029714 0.029714 0.0300476 0.0300476 0.0303864 0.0303864 0.0307304 0.0307304 0.0310798 0.0310798 0.0314347 0.0314347 0.0317951 0.0317951 0.0321613 0.0321613 0.0325334 0.0325334 0.0329115 0.0329115 0.0332957 0.0332957 0.0336861 0.0336861 0.034083 0.034083 0.0344865 0.0344865 0.0348966 0.0348966 0.0353135 0.0353135 0.0357374 0.0357374 0.0361684 0.0361684 0.0366066 0.0366066 0.0370522 0.0370522 0.0375054 0.0375054 0.0379661 0.0379661 0.0384347 0.0384347 0.0389112 0.0389112 0.0393957 0.0393957 0.0398884 0.0398884 0.0403895 0.0403895 0.0408989 0.0408989 0.0414169 0.0414169 0.0419435 0.0419435 0.0424789 0.0424789 0.0430231 0.0430231 0.0435763 0.0435763 0.0441385 0.0441385 0.0447098 0.0447098 0.0452902 0.0452902 0.0458799 0.0458799 0.0464789 0.0464789 0.0470871 0.0470871 0.0477047 0.0477047 0.0483317 0.0483317 0.048968 0.048968 0.0496136 0.0496136 0.0502685 0.0502685 0.0509327 0.0509327 0.051606 0.051606 0.0522885 0.0522885 0.05298 0.05298 0.0536803 0.0536803 0.0543894 0.0543894 0.0551071 0.0551071 0.0558332 0.0558332 0.0565674 0.0565674 0.0573097 0.0573097 0.0580596 0.0580596 0.058817 0.058817 0.0595814 0.0595814 0.0603527 0.0603527 0.0611304 0.0611304 0.061914 0.061914 0.0627033 0.0627033 0.0634977 0.0634977 0.0642967 0.0642967 0.0650999 0.0650999