# vtk DataFile Version 3.0
#This file was generated by the deal.II library on 2020/9/1 at 14:41:19
ASCII
DATASET UNSTRUCTURED_GRID

POINTS 2048 double
1.5 0 0
1.59619 0 0
1.59619 0 0
1.69238 0 0
1.69238 0 0
1.78857 0 0
1.78857 0 0
1.88477 0 0
1.88477 0 0
1.98096 0 0
1.98096 0 0
2.07715 0 0
2.07715 0 0
2.17334 0 0
2.17334 0 0
2.26953 0 0
2.26953 0 0
2.36572 0 0
2.36572 0 0
2.46191 0 0
2.46191 0 0
2.55811 0 0
2.55811 0 0
2.6543 0 0
2.6543 0 0
2.75049 0 0
2.75049 0 0
2.84668 0 0
2.84668 0 0
2.94287 0 0
2.94287 0 0
3.03906 0 0
3.03906 0 0
3.13525 0 0
3.13525 0 0
3.23145 0 0
3.23145 0 0
3.32764 0 0
3.32764 0 0
3.42383 0 0
3.42383 0 0
3.52002 0 0
3.52002 0 0
3.61621 0 0
3.61621 0 0
3.7124 0 0
3.7124 0 0
3.80859 0 0
3.80859 0 0
3.90479 0 0
3.90479 0 0
4.00098 0 0
4.00098 0 0
4.09717 0 0
4.09717 0 0
4.19336 0 0
4.19336 0 0
4.28955 0 0
4.28955 0 0
4.38574 0 0
4.38574 0 0
4.48193 0 0
4.48193 0 0
4.57812 0 0
4.57812 0 0
4.67432 0 0
4.67432 0 0
4.77051 0 0
4.77051 0 0
4.8667 0 0
4.8667 0 0
4.96289 0 0
4.96289 0 0
5.05908 0 0
5.05908 0 0
5.15527 0 0
5.15527 0 0
5.25146 0 0
5.25146 0 0
5.34766 0 0
5.34766 0 0
5.44385 0 0
5.44385 0 0
5.54004 0 0
5.54004 0 0
5.63623 0 0
5.63623 0 0
5.73242 0 0
5.73242 0 0
5.82861 0 0
5.82861 0 0
5.9248 0 0
5.9248 0 0
6.021 0 0
6.021 0 0
6.11719 0 0
6.11719 0 0
6.21338 0 0
6.21338 0 0
6.30957 0 0
6.30957 0 0
6.40576 0 0
6.40576 0 0
6.50195 0 0
6.50195 0 0
6.59814 0 0
6.59814 0 0
6.69434 0 0
6.69434 0 0
6.79053 0 0
6.79053 0 0
6.88672 0 0
6.88672 0 0
6.98291 0 0
6.98291 0 0
7.0791 0 0
7.0791 0 0
7.17529 0 0
7.17529 0 0
7.27148 0 0
7.27148 0 0
7.36768 0 0
7.36768 0 0
7.46387 0 0
7.46387 0 0
7.56006 0 0
7.56006 0 0
7.65625 0 0
7.65625 0 0
7.75244 0 0
7.75244 0 0
7.84863 0 0
7.84863 0 0
7.94482 0 0
7.94482 0 0
8.04102 0 0
8.04102 0 0
8.13721 0 0
8.13721 0 0
8.2334 0 0
8.2334 0 0
8.32959 0 0
8.32959 0 0
8.42578 0 0
8.42578 0 0
8.52197 0 0
8.52197 0 0
8.61816 0 0
8.61816 0 0
8.71436 0 0
8.71436 0 0
8.81055 0 0
8.81055 0 0
8.90674 0 0
8.90674 0 0
9.00293 0 0
9.00293 0 0
9.09912 0 0
9.09912 0 0
9.19531 0 0
9.19531 0 0
9.2915 0 0
9.2915 0 0
9.3877 0 0
9.3877 0 0
9.48389 0 0
9.48389 0 0
9.58008 0 0
9.58008 0 0
9.67627 0 0
9.67627 0 0
9.77246 0 0
9.77246 0 0
9.86865 0 0
9.86865 0 0
9.96484 0 0
9.96484 0 0
10.061 0 0
10.061 0 0
10.1572 0 0
10.1572 0 0
10.2534 0 0
10.2534 0 0
10.3496 0 0
10.3496 0 0
10.4458 0 0
10.4458 0 0
10.542 0 0
10.542 0 0
10.6382 0 0
10.6382 0 0
10.7344 0 0
10.7344 0 0
10.8306 0 0
10.8306 0 0
10.9268 0 0
10.9268 0 0
11.0229 0 0
11.0229 0 0
11.1191 0 0
11.1191 0 0
11.2153 0 0
11.2153 0 0
11.3115 0 0
11.3115 0 0
11.4077 0 0
11.4077 0 0
11.5039 0 0
11.5039 0 0
11.6001 0 0
11.6001 0 0
11.6963 0 0
11.6963 0 0
11.7925 0 0
11.7925 0 0
11.8887 0 0
11.8887 0 0
11.9849 0 0
11.9849 0 0
12.0811 0 0
12.0811 0 0
12.1772 0 0
12.1772 0 0
12.2734 0 0
12.2734 0 0
12.3696 0 0
12.3696 0 0
12.4658 0 0
12.4658 0 0
12.562 0 0
12.562 0 0
12.6582 0 0
12.6582 0 0
12.7544 0 0
12.7544 0 0
12.8506 0 0
12.8506 0 0
12.9468 0 0
12.9468 0 0
13.043 0 0
13.043 0 0
13.1392 0 0
13.1392 0 0
13.2354 0 0
13.2354 0 0
13.3315 0 0
13.3315 0 0
13.4277 0 0
13.4277 0 0
13.5239 0 0
13.5239 0 0
13.6201 0 0
13.6201 0 0
13.7163 0 0
13.7163 0 0
13.8125 0 0
13.8125 0 0
13.9087 0 0
13.9087 0 0
14.0049 0 0
14.0049 0 0
14.1011 0 0
14.1011 0 0
14.1973 0 0
14.1973 0 0
14.2935 0 0
14.2935 0 0
14.3896 0 0
14.3896 0 0
14.4858 0 0
14.4858 0 0
14.582 0 0
14.582 0 0
14.6782 0 0
14.6782 0 0
14.7744 0 0
14.7744 0 0
14.8706 0 0
14.8706 0 0
14.9668 0 0
14.9668 0 0
15.063 0 0
15.063 0 0
15.1592 0 0
15.1592 0 0
15.2554 0 0
15.2554 0 0
15.3516 0 0
15.3516 0 0
15.4478 0 0
15.4478 0 0
15.5439 0 0
15.5439 0 0
15.6401 0 0
15.6401 0 0
15.7363 0 0
15.7363 0 0
15.8325 0 0
15.8325 0 0
15.9287 0 0
15.9287 0 0
16.0249 0 0
16.0249 0 0
16.1211 0 0
16.1211 0 0
16.2173 0 0
16.2173 0 0
16.3135 0 0
16.3135 0 0
16.4097 0 0
16.4097 0 0
16.5059 0 0
16.5059 0 0
16.6021 0 0
16.6021 0 0
16.6982 0 0
16.6982 0 0
16.7944 0 0
16.7944 0 0
16.8906 0 0
16.8906 0 0
16.9868 0 0
16.9868 0 0
17.083 0 0
17.083 0 0
17.1792 0 0
17.1792 0 0
17.2754 0 0
17.2754 0 0
17.3716 0 0
17.3716 0 0
17.4678 0 0
17.4678 0 0
17.564 0 0
17.564 0 0
17.6602 0 0
17.6602 0 0
17.7563 0 0
17.7563 0 0
17.8525 0 0
17.8525 0 0
17.9487 0 0
17.9487 0 0
18.0449 0 0
18.0449 0 0
18.1411 0 0
18.1411 0 0
18.2373 0 0
18.2373 0 0
18.3335 0 0
18.3335 0 0
18.4297 0 0
18.4297 0 0
18.5259 0 0
18.5259 0 0
18.6221 0 0
18.6221 0 0
18.7183 0 0
18.7183 0 0
18.8145 0 0
18.8145 0 0
18.9106 0 0
18.9106 0 0
19.0068 0 0
19.0068 0 0
19.103 0 0
19.103 0 0
19.1992 0 0
19.1992 0 0
19.2954 0 0
19.2954 0 0
19.3916 0 0
19.3916 0 0
19.4878 0 0
19.4878 0 0
19.584 0 0
19.584 0 0
19.6802 0 0
19.6802 0 0
19.7764 0 0
19.7764 0 0
19.8726 0 0
19.8726 0 0
19.9688 0 0
19.9688 0 0
20.0649 0 0
20.0649 0 0
20.1611 0 0
20.1611 0 0
20.2573 0 0
20.2573 0 0
20.3535 0 0
20.3535 0 0
20.4497 0 0
20.4497 0 0
20.5459 0 0
20.5459 0 0
20.6421 0 0
20.6421 0 0
20.7383 0 0
20.7383 0 0
20.8345 0 0
20.8345 0 0
20.9307 0 0
20.9307 0 0
21.0269 0 0
21.0269 0 0
21.123 0 0
21.123 0 0
21.2192 0 0
21.2192 0 0
21.3154 0 0
21.3154 0 0
21.4116 0 0
21.4116 0 0
21.5078 0 0
21.5078 0 0
21.604 0 0
21.604 0 0
21.7002 0 0
21.7002 0 0
21.7964 0 0
21.7964 0 0
21.8926 0 0
21.8926 0 0
21.9888 0 0
21.9888 0 0
22.085 0 0
22.085 0 0
22.1812 0 0
22.1812 0 0
22.2773 0 0
22.2773 0 0
22.3735 0 0
22.3735 0 0
22.4697 0 0
22.4697 0 0
22.5659 0 0
22.5659 0 0
22.6621 0 0
22.6621 0 0
22.7583 0 0
22.7583 0 0
22.8545 0 0
22.8545 0 0
22.9507 0 0
22.9507 0 0
23.0469 0 0
23.0469 0 0
23.1431 0 0
23.1431 0 0
23.2393 0 0
23.2393 0 0
23.3354 0 0
23.3354 0 0
23.4316 0 0
23.4316 0 0
23.5278 0 0
23.5278 0 0
23.624 0 0
23.624 0 0
23.7202 0 0
23.7202 0 0
23.8164 0 0
23.8164 0 0
23.9126 0 0
23.9126 0 0
24.0088 0 0
24.0088 0 0
24.105 0 0
24.105 0 0
24.2012 0 0
24.2012 0 0
24.2974 0 0
24.2974 0 0
24.3936 0 0
24.3936 0 0
24.4897 0 0
24.4897 0 0
24.5859 0 0
24.5859 0 0
24.6821 0 0
24.6821 0 0
24.7783 0 0
24.7783 0 0
24.8745 0 0
24.8745 0 0
24.9707 0 0
24.9707 0 0
25.0669 0 0
25.0669 0 0
25.1631 0 0
25.1631 0 0
25.2593 0 0
25.2593 0 0
25.3555 0 0
25.3555 0 0
25.4517 0 0
25.4517 0 0
25.5479 0 0
25.5479 0 0
25.644 0 0
25.644 0 0
25.7402 0 0
25.7402 0 0
25.8364 0 0
25.8364 0 0
25.9326 0 0
25.9326 0 0
26.0288 0 0
26.0288 0 0
26.125 0 0
26.125 0 0
26.2212 0 0
26.2212 0 0
26.3174 0 0
26.3174 0 0
26.4136 0 0
26.4136 0 0
26.5098 0 0
26.5098 0 0
26.606 0 0
26.606 0 0
26.7021 0 0
26.7021 0 0
26.7983 0 0
26.7983 0 0
26.8945 0 0
26.8945 0 0
26.9907 0 0
26.9907 0 0
27.0869 0 0
27.0869 0 0
27.1831 0 0
27.1831 0 0
27.2793 0 0
27.2793 0 0
27.3755 0 0
27.3755 0 0
27.4717 0 0
27.4717 0 0
27.5679 0 0
27.5679 0 0
27.6641 0 0
27.6641 0 0
27.7603 0 0
27.7603 0 0
27.8564 0 0
27.8564 0 0
27.9526 0 0
27.9526 0 0
28.0488 0 0
28.0488 0 0
28.145 0 0
28.145 0 0
28.2412 0 0
28.2412 0 0
28.3374 0 0
28.3374 0 0
28.4336 0 0
28.4336 0 0
28.5298 0 0
28.5298 0 0
28.626 0 0
28.626 0 0
28.7222 0 0
28.7222 0 0
28.8184 0 0
28.8184 0 0
28.9146 0 0
28.9146 0 0
29.0107 0 0
29.0107 0 0
29.1069 0 0
29.1069 0 0
29.2031 0 0
29.2031 0 0
29.2993 0 0
29.2993 0 0
29.3955 0 0
29.3955 0 0
29.4917 0 0
29.4917 0 0
29.5879 0 0
29.5879 0 0
29.6841 0 0
29.6841 0 0
29.7803 0 0
29.7803 0 0
29.8765 0 0
29.8765 0 0
29.9727 0 0
29.9727 0 0
30.0688 0 0
30.0688 0 0
30.165 0 0
30.165 0 0
30.2612 0 0
30.2612 0 0
30.3574 0 0
30.3574 0 0
30.4536 0 0
30.4536 0 0
30.5498 0 0
30.5498 0 0
30.646 0 0
30.646 0 0
30.7422 0 0
30.7422 0 0
30.8384 0 0
30.8384 0 0
30.9346 0 0
30.9346 0 0
31.0308 0 0
31.0308 0 0
31.127 0 0
31.127 0 0
31.2231 0 0
31.2231 0 0
31.3193 0 0
31.3193 0 0
31.4155 0 0
31.4155 0 0
31.5117 0 0
31.5117 0 0
31.6079 0 0
31.6079 0 0
31.7041 0 0
31.7041 0 0
31.8003 0 0
31.8003 0 0
31.8965 0 0
31.8965 0 0
31.9927 0 0
31.9927 0 0
32.0889 0 0
32.0889 0 0
32.1851 0 0
32.1851 0 0
32.2812 0 0
32.2812 0 0
32.3774 0 0
32.3774 0 0
32.4736 0 0
32.4736 0 0
32.5698 0 0
32.5698 0 0
32.666 0 0
32.666 0 0
32.7622 0 0
32.7622 0 0
32.8584 0 0
32.8584 0 0
32.9546 0 0
32.9546 0 0
33.0508 0 0
33.0508 0 0
33.147 0 0
33.147 0 0
33.2432 0 0
33.2432 0 0
33.3394 0 0
33.3394 0 0
33.4355 0 0
33.4355 0 0
33.5317 0 0
33.5317 0 0
33.6279 0 0
33.6279 0 0
33.7241 0 0
33.7241 0 0
33.8203 0 0
33.8203 0 0
33.9165 0 0
33.9165 0 0
34.0127 0 0
34.0127 0 0
34.1089 0 0
34.1089 0 0
34.2051 0 0
34.2051 0 0
34.3013 0 0
34.3013 0 0
34.3975 0 0
34.3975 0 0
34.4937 0 0
34.4937 0 0
34.5898 0 0
34.5898 0 0
34.686 0 0
34.686 0 0
34.7822 0 0
34.7822 0 0
34.8784 0 0
34.8784 0 0
34.9746 0 0
34.9746 0 0
35.0708 0 0
35.0708 0 0
35.167 0 0
35.167 0 0
35.2632 0 0
35.2632 0 0
35.3594 0 0
35.3594 0 0
35.4556 0 0
35.4556 0 0
35.5518 0 0
35.5518 0 0
35.6479 0 0
35.6479 0 0
35.7441 0 0
35.7441 0 0
35.8403 0 0
35.8403 0 0
35.9365 0 0
35.9365 0 0
36.0327 0 0
36.0327 0 0
36.1289 0 0
36.1289 0 0
36.2251 0 0
36.2251 0 0
36.3213 0 0
36.3213 0 0
36.4175 0 0
36.4175 0 0
36.5137 0 0
36.5137 0 0
36.6099 0 0
36.6099 0 0
36.7061 0 0
36.7061 0 0
36.8022 0 0
36.8022 0 0
36.8984 0 0
36.8984 0 0
36.9946 0 0
36.9946 0 0
37.0908 0 0
37.0908 0 0
37.187 0 0
37.187 0 0
37.2832 0 0
37.2832 0 0
37.3794 0 0
37.3794 0 0
37.4756 0 0
37.4756 0 0
37.5718 0 0
37.5718 0 0
37.668 0 0
37.668 0 0
37.7642 0 0
37.7642 0 0
37.8604 0 0
37.8604 0 0
37.9565 0 0
37.9565 0 0
38.0527 0 0
38.0527 0 0
38.1489 0 0
38.1489 0 0
38.2451 0 0
38.2451 0 0
38.3413 0 0
38.3413 0 0
38.4375 0 0
38.4375 0 0
38.5337 0 0
38.5337 0 0
38.6299 0 0
38.6299 0 0
38.7261 0 0
38.7261 0 0
38.8223 0 0
38.8223 0 0
38.9185 0 0
38.9185 0 0
39.0146 0 0
39.0146 0 0
39.1108 0 0
39.1108 0 0
39.207 0 0
39.207 0 0
39.3032 0 0
39.3032 0 0
39.3994 0 0
39.3994 0 0
39.4956 0 0
39.4956 0 0
39.5918 0 0
39.5918 0 0
39.688 0 0
39.688 0 0
39.7842 0 0
39.7842 0 0
39.8804 0 0
39.8804 0 0
39.9766 0 0
39.9766 0 0
40.0728 0 0
40.0728 0 0
40.1689 0 0
40.1689 0 0
40.2651 0 0
40.2651 0 0
40.3613 0 0
40.3613 0 0
40.4575 0 0
40.4575 0 0
40.5537 0 0
40.5537 0 0
40.6499 0 0
40.6499 0 0
40.7461 0 0
40.7461 0 0
40.8423 0 0
40.8423 0 0
40.9385 0 0
40.9385 0 0
41.0347 0 0
41.0347 0 0
41.1309 0 0
41.1309 0 0
41.2271 0 0
41.2271 0 0
[...]
POINT_DATA 2048
SCALARS solution_0 double 1
LOOKUP_TABLE default
0.46269 0.451855 0.451855 0.441628 0.441628 0.431944 0.431944 0.422748 0.422748 0.413992 0.413992 0.405639 0.405639 0.397653 0.397653 0.390005 0.390005 0.382671 0.382671 0.375629 0.375629 0.368857 0.368857 0.362341 0.362341 0.356063 0.356063 0.35001 0.35001 0.344169 0.344169 0.338529 0.338529 0.33308 0.33308 0.327812 0.327812 0.322717 0.322717 0.317785 0.317785 0.313011 0.313011 0.308385 0.308385 0.303903 0.303903 0.299558 0.299558 0.295343 0.295343 0.291255 0.291255 0.287286 0.287286 0.283434 0.283434 0.279692 0.279692 0.276057 0.276057 0.272524 0.272524 0.269089 0.269089 0.265749 0.265749 0.2625 0.2625 0.259338 0.259338 0.25626 0.25626 0.253262 0.253262 0.250343 0.250343 0.247498 0.247498 0.244725 0.244725 0.242021 0.242021 0.239383 0.239383 0.23681 0.23681 0.234297 0.234297 0.231844 0.231844 0.229447 0.229447 0.227105 0.227105 0.224815 0.224815 0.222575 0.222575 0.220384 0.220384 0.218238 0.218238 0.216137 0.216137 0.214079 0.214079 0.212061 0.212061 0.210083 0.210083 0.208142 0.208142 0.206237 0.206237 0.204366 0.204366 0.202528 0.202528 0.200721 0.200721 0.198944 0.198944 0.197196 0.197196 0.195475 0.195475 0.193781 0.193781 0.192111 0.192111 0.190464 0.190464 0.18884 0.18884 0.187237 0.187237 0.185655 0.185655 0.184092 0.184092 0.182547 0.182547 0.181019 0.181019 0.179508 0.179508 0.178012 0.178012 0.17653 0.17653 0.175063 0.175063 0.173608 0.173608 0.172165 0.172165 0.170734 0.170734 0.169313 0.169313 0.167903 0.167903 0.166502 0.166502 0.165109 0.165109 0.163724 0.163724 0.162347 0.162347 0.160977 0.160977 0.159614 0.159614 0.158256 0.158256 0.156904 0.156904 0.155556 0.155556 0.154214 0.154214 0.152875 0.152875 0.15154 0.15154 0.150209 0.150209 0.148881 0.148881 0.147555 0.147555 0.146232 0.146232 0.144911 0.144911 0.143593 0.143593 0.142275 0.142275 0.14096 0.14096 0.139646 0.139646 0.138333 0.138333 0.137021 0.137021 0.135709 0.135709 0.134399 0.134399 0.133089 0.133089 0.13178 0.13178 0.130472 0.130472 0.129164 0.129164 0.127856 0.127856 0.126549 0.126549 0.125243 0.125243 0.123937 0.123937 0.122632 0.122632 0.121327 0.121327 0.120023 0.120023 0.11872 0.11872 0.117417 0.117417 0.116116 0.116116 0.114816 0.114816 0.113517 0.113517 0.112219 0.112219 0.110923 0.110923 0.109629 0.109629 0.108336 0.108336 0.107046 0.107046 0.105758 0.105758 0.104473 0.104473 0.10319 0.10319 0.10191 0.10191 0.100634 0.100634 0.0993607 0.0993607 0.0980914 0.0980914 0.096826 0.096826 0.0955648 0.0955648 0.0943081 0.0943081 0.0930561 0.0930561 0.0918092 0.0918092 0.0905675 0.0905675 0.0893315 0.0893315 0.0881013 0.0881013 0.0868773 0.0868773 0.0856598 0.0856598 0.0844489 0.0844489 0.0832451 0.0832451 0.0820487 0.0820487 0.0808598 0.0808598 0.0796788 0.0796788 0.078506 0.078506 0.0773417 0.0773417 0.0761861 0.0761861 0.0750396 0.0750396 0.0739024 0.0739024 0.0727748 0.0727748 0.071657 0.071657 0.0705494 0.0705494 0.0694521 0.0694521 0.0683655 0.0683655 0.0672898 0.0672898 0.0662253 0.0662253 0.0651721 0.0651721 0.0641305 0.0641305 0.0631008 0.0631008 0.0620832 0.0620832 0.0610778 0.0610778 0.0600849 0.0600849 0.0591047 0.0591047 0.0581373 0.0581373 0.057183 0.057183 0.0562418 0.0562418 0.0553141 0.0553141 0.0543999 0.0543999 0.0534993 0.0534993 0.0526126 0.0526126 0.0517397 0.0517397 0.0508809 0.0508809 0.0500363 0.0500363 0.0492058 0.0492058 0.0483897 0.0483897 0.047588 0.047588 0.0468008 0.0468008 0.0460281 0.0460281 0.0452699 0.0452699 0.0445263 0.0445263 0.0437974 0.0437974 0.043083 0.043083 0.0423834 0.0423834 0.0416983 0.0416983 0.0410279 0.0410279 0.040372 0.040372 0.0397307 0.0397307 0.0391039 0.0391039 0.0384916 0.0384916 0.0378936 0.0378936 0.03731 0.03731 0.0367406 0.0367406 0.0361854 0.0361854 0.0356442 0.0356442 0.0351169 0.0351169 0.0346035 0.0346035 0.0341037 0.0341037 0.0336176 0.0336176 0.0331448 0.0331448 0.0326854 0.0326854 0.032239 0.032239 0.0318056 0.0318056 0.0313851 0.0313851 0.0309771 0.0309771 0.0305816 0.0305816 0.0301984 0.0301984 0.0298272 0.0298272 0.0294679 0.0294679 0.0291202 0.0291202 0.028784 0.028784 0.028459 0.028459 0.0281451 0.0281451 0.027842 0.027842 0.0275494 0.0275494 0.0272672 0.0272672 0.0269951 0.0269951 0.0267329 0.0267329 0.0264804 0.0264804 0.0262372 0.0262372 0.0260032 0.0260032 0.0257782 0.0257782 0.0255618 0.0255618 0.0253539 0.0253539 0.0251542 0.0251542 0.0249624 0.0249624 0.0247783 0.0247783 0.0246017 0.0246017 0.0244323 0.0244323 0.0242699 0.0242699 0.0241143 0.0241143 0.0239652 0.0239652 0.0238223 0.0238223 0.0236856 0.0236856 0.0235546 0.0235546 0.0234294 0.0234294 0.0233095 0.0233095 0.0231948 0.0231948 0.0230852 0.0230852 0.0229804 0.0229804 0.0228802 0.0228802 0.0227845 0.0227845 0.0226932 0.0226932 0.022606 0.022606 0.0225228 0.0225228 0.0224434 0.0224434 0.0223678 0.0223678 0.0222959 0.0222959 0.0222275 0.0222275 0.0221625 0.0221625 0.0221008 0.0221008 0.0220424 0.0220424 0.0219873 0.0219873 0.0219352 0.0219352 0.0218863 0.0218863 0.0218404 0.0218404 0.0217976 0.0217976 0.0217578 0.0217578 0.021721 0.021721 0.0216872 0.0216872 0.0216564 0.0216564 0.0216286 0.0216286 0.0216038 0.0216038 0.0215821 0.0215821 0.0215633 0.0215633 0.0215477 0.0215477 0.021535 0.021535 0.0215255 0.0215255 0.0215191 0.0215191 0.0215157 0.0215157 0.0215155 0.0215155 0.0215183 0.0215183 0.0215243 0.0215243 0.0215334 0.0215334 0.0215455 0.0215455 0.0215607 0.0215607 0.0215788 0.0215788 0.0216 0.0216 0.021624 0.021624 0.021651 0.021651 0.0216806 0.0216806 0.021713 0.021713 0.021748 0.021748 0.0217855 0.0217855 0.0218253 0.0218253 0.0218674 0.0218674 0.0219116 0.0219116 0.0219579 0.0219579 0.0220059 0.0220059 0.0220556 0.0220556 0.0221068 0.0221068 0.0221593 0.0221593 0.022213 0.022213 0.0222676 0.0222676 0.022323 0.022323 0.0223789 0.0223789 0.0224352 0.0224352 0.0224916 0.0224916 0.0225479 0.0225479 0.022604 0.022604 0.0226596 0.0226596 0.0227145 0.0227145 0.0227684 0.0227684 0.0228212 0.0228212 0.0228727 0.0228727 0.0229226 0.0229226 0.0229708 0.0229708 0.023017 0.023017 0.0230611 0.0230611 0.0231028 0.0231028 0.0231421 0.0231421 0.0231786 0.0231786 0.0232123 0.0232123 0.0232429 0.0232429 0.0232704 0.0232704 0.0232946 0.0232946 0.0233154 0.0233154 0.0233326 0.0233326 0.0233462 0.0233462 0.023356 0.023356 0.0233619 0.0233619 0.023364 0.023364 0.0233621 0.0233621 0.0233561 0.0233561 0.0233462 0.0233462 0.0233322 0.0233322 0.0233141 0.0233141 0.023292 0.023292 0.0232659 0.0232659 0.0232358 0.0232358 0.0232018 0.0232018 0.0231639 0.0231639 0.0231222 0.0231222 0.0230768 0.0230768 0.0230279 0.0230279 0.0229754 0.0229754 0.0229197 0.0229197 0.0228607 0.0228607 0.0227986 0.0227986 0.0227337 0.0227337 0.0226659 0.0226659 0.0225956 0.0225956 0.0225229 0.0225229 0.022448 0.022448 0.022371 0.022371 0.0222922 0.0222922 0.0222117 0.0222117 0.0221297 0.0221297 0.0220464 0.0220464 0.0219621 0.0219621 0.0218768 0.0218768 0.0217908 0.0217908 0.0217043 0.0217043 0.0216175 0.0216175 0.0215305 0.0215305 0.0214434 0.0214434 0.0213566 0.0213566 0.02127 0.02127 0.0211839 0.0211839 0.0210984 0.0210984 0.0210137 0.0210137 0.0209298 0.0209298 0.0208469 0.0208469 0.0207651 0.0207651 0.0206846 0.0206846 0.0206052 0.0206052 0.0205273 0.0205273 0.0204508 0.0204508 0.0203758 0.0203758 0.0203024 0.0203024 0.0202305 0.0202305 0.0201603 0.0201603 0.0200918 0.0200918 0.020025 0.020025 0.0199599 0.0199599 0.0198966 0.0198966 0.0198349 0.0198349 0.019775 0.019775 0.0197168 0.0197168 0.0196603 0.0196603 0.0196055 0.0196055 0.0195524 0.0195524 0.0195008 0.0195008 0.0194509 0.0194509 0.0194026 0.0194026 0.0193558 0.0193558 0.0193105 0.0193105 0.0192666 0.0192666 0.0192242 0.0192242 0.0191831 0.0191831 0.0191434 0.0191434 0.019105 0.019105 0.0190678 0.0190678 0.0190318 0.0190318 0.018997 0.018997 0.0189633 0.0189633 0.0189307 0.0189307 0.0188991 0.0188991 0.0188685 0.0188685 0.0188389 0.0188389 0.0188102 0.0188102 0.0187824 0.0187824 0.0187554 0.0187554 0.0187292 0.0187292 0.0187039 0.0187039 0.0186792 0.0186792 0.0186554 0.0186554 0.0186322 0.0186322 0.0186097 0.0186097 0.0185878 0.0185878 0.0185666 0.0185666 0.0185459 0.0185459 0.0185259 0.0185259 0.0185064 0.0185064 0.0184875 0.0184875 0.0184692 0.0184692 0.0184513 0.0184513 0.018434 0.018434 0.0184171 0.0184171 0.0184008 0.0184008 0.0183849 0.0183849 0.0183695 0.0183695 0.0183546 0.0183546 0.0183401 0.0183401 0.0183261 0.0183261 0.0183125 0.0183125 0.0182994 0.0182994 0.0182867 0.0182867 0.0182744 0.0182744 0.0182626 0.0182626 0.0182511 0.0182511 0.0182402 0.0182402 0.0182296 0.0182296 0.0182194 0.0182194 0.0182097 0.0182097 0.0182004 0.0182004 0.0181916 0.0181916 0.0181831 0.0181831 0.0181751 0.0181751 0.0181675 0.0181675 0.0181603 0.0181603 0.0181536 0.0181536 0.0181473 0.0181473 0.0181414 0.0181414 0.0181359 0.0181359 0.0181309 0.0181309 0.0181263 0.0181263 0.0181222 0.0181222 0.0181185 0.0181185 0.0181152 0.0181152 0.0181124 0.0181124 0.0181101 0.0181101 0.0181082 0.0181082 0.0181067 0.0181067 0.0181057 0.0181057 0.0181052 0.0181052 0.0181052 0.0181052 0.0181056 0.0181056 0.0181064 0.0181064 0.0181078 0.0181078 0.0181096 0.0181096 0.0181119 0.0181119 0.0181147 0.0181147 0.018118 0.018118 0.0181218 0.0181218 0.0181261 0.0181261 0.0181309 0.0181309 0.0181362 0.0181362 0.018142 0.018142 0.0181483 0.0181483 0.0181551 0.0181551 0.0181625 0.0181625 0.0181703 0.0181703 0.0181787 0.0181787 0.0181877 0.0181877 0.0181972 0.0181972 0.0182072 0.0182072 0.0182178 0.0182178 0.0182289 0.0182289 0.0182406 0.0182406 0.0182528 0.0182528 0.0182656 0.0182656 0.018279 0.018279 0.0182929 0.0182929 0.0183075 0.0183075 0.0183226 0.0183226 0.0183383 0.0183383 0.0183546 0.0183546 0.0183716 0.0183716 0.0183891 0.0183891 0.0184072 0.0184072 0.018426 0.018426 0.0184454 0.0184454 0.0184654 0.0184654 0.0184861 0.0184861 0.0185074 0.0185074 0.0185294 0.0185294 0.018552 0.018552 0.0185753 0.0185753 0.0185992 0.0185992 0.0186238 0.0186238 0.0186492 0.0186492 0.0186752 0.0186752 0.0187019 0.0187019 0.0187293 0.0187293 0.0187574 0.0187574 0.0187863 0.0187863 0.0188159 0.0188159 0.0188462 0.0188462 0.0188772 0.0188772 0.018909 0.018909 0.0189416 0.0189416 0.018975 0.018975 0.0190091 0.0190091 0.019044 0.019044 0.0190797 0.0190797 0.0191162 0.0191162 0.0191536 0.0191536 0.0191917 0.0191917 0.0192307 0.0192307 0.0192706 0.0192706 0.0193113 0.0193113 0.0193528 0.0193528 0.0193953 0.0193953 0.0194386 0.0194386 0.0194828 0.0194828 0.019528 0.019528 0.019574 0.019574 0.019621 0.019621 0.019669 0.019669 0.0197179 0.0197179 0.0197677 0.0197677 0.0198186 0.0198186 0.0198705 0.0198705 0.0199233 0.0199233 0.0199773 0.0199773 0.0200322 0.0200322 0.0200882 0.0200882 0.0201453 0.0201453 0.0202035 0.0202035 0.0202627 0.0202627 0.0203231 0.0203231 0.0203847 0.0203847 0.0204474 0.0204474 0.0205113 0.0205113 0.0205763 0.0205763 0.0206426 0.0206426 0.0207101 0.0207101 0.0207789 0.0207789 0.020849 0.020849 0.0209203 0.0209203 0.020993 0.020993 0.021067 0.021067 0.0211424 0.0211424 0.0212191 0.0212191 0.0212973 0.0212973 0.0213769 0.0213769 0.021458 0.021458 0.0215406 0.0215406 0.0216248 0.0216248 0.0217105 0.0217105 0.0217977 0.0217977 0.0218866 0.0218866 0.0219772 0.0219772 0.0220694 0.0220694 0.0221633 0.0221633 0.022259 0.022259 0.0223565 0.0223565 0.0224559 0.0224559 0.0225571 0.0225571 0.0226602 0.0226602 0.0227653 0.0227653 0.0228724 0.0228724 0.0229816 0.0229816 0.0230928 0.0230928 0.0232062 0.0232062 0.0233218 0.0233218 0.0234397 0.0234397 0.0235598 0.0235598 0.0236824 0.0236824 0.0238073 0.0238073 0.0239348 0.0239348 0.0240648 0.0240648 0.0241974 0.0241974 0.0243327 0.0243327 0.0244707 0.0244707 0.0246116 0.0246116 0.0247554 0.0247554 0.0249022 0.0249022 0.025052 0.025052 0.025205 0.025205 0.0253613 0.0253613 0.0255208 0.0255208 0.0256838 0.0256838 0.0258503 0.0258503 0.0260204 0.0260204 0.0261943 0.0261943 0.0263719 0.0263719 0.0265536 0.0265536 0.0267392 0.0267392 0.026929 0.026929 0.0271232 0.0271232 0.0273217 0.0273217 0.0275248 0.0275248 0.0277326 0.0277326 0.0279452 0.0279452 0.0281627 0.0281627 0.0283853 0.0283853 0.0286132 0.0286132 0.0288465 0.0288465 0.0290854 0.0290854 0.02933 0.02933 0.0295805 0.0295805 0.0298371 0.0298371 0.0300999 0.0300999 0.0303692 0.0303692 0.0306451 0.0306451 0.0309277 0.0309277 0.0312174 0.0312174 0.0315143 0.0315143 0.0318186 0.0318186 0.0321305 0.0321305 0.0324502 0.0324502 0.0327779 0.0327779 0.0331139 0.0331139 0.0334584 0.0334584 0.0338117 0.0338117 0.0341738 0.0341738 0.0345452 0.0345452 0.034926 0.034926 0.0353165 0.0353165 0.0357168 0.0357168 0.0361274 0.0361274 0.0365483 0.0365483 0.03698 0.03698 0.0374225 0.0374225 0.0378763 0.0378763 0.0383415 0.0383415 0.0388184 0.0388184 0.0393073 0.0393073 0.0398084 0.0398084 0.0403219 0.0403219 0.0408483 0.0408483 0.0413876 0.0413876 0.0419402 0.0419402 0.0425063 0.0425063 0.0430862 0.0430862 0.0436801 0.0436801 0.0442882 0.0442882 0.0449109 0.0449109 0.0455482 0.0455482 0.0462005 0.0462005 0.046868 0.046868 0.0475508 0.0475508 0.0482492 0.0482492 0.0489633 0.0489633 0.0496933 0.0496933 0.0504395 0.0504395 0.0512019 0.0512019 0.0519807 0.0519807 0.052776 0.052776 0.0535878 0.0535878 0.0544164 0.0544164 0.0552618 0.0552618 0.0561239 0.0561239 0.0570029 0.0570029 0.0578987 0.0578987 0.0588113 0.0588113 0.0597407 0.0597407 0.0606868 0.0606868 0.0616495 0.0616495 0.0626286 0.0626286 0.0636241 0.0636241 0.0646357 0.0646357 0.0656631 0.0656631 0.0667062 0.0667062 0.0677646 0.0677646 0.068838 0.068838 0.069926 0.069926 0.0710282 0.0710282 0.0721441 0.0721441 0.0732733 0.0732733 0.0744151 0.0744151 0.0755691 0.0755691 0.0767344 0.0767344 0.0779106 0.0779106 0.0790967 0.0790967 0.0802921 0.0802921 0.0814958 0.0814958 0.082707 0.082707 0.0839247 0.0839247 0.0851479 0.0851479 0.0863756 0.0863756 0.0876065 0.0876065 0.0888395 0.0888395 0.0900734 0.0900734 0.0913068 0.0913068 0.0925384 0.0925384 0.0937668 0.0937668 0.0949904 0.0949904 0.0962076 0.0962076 0.097417 0.097417 0.0986166 0.0986166 0.0998049 0.0998049 0.10098 0.10098 0.10214 0.10214 0.103283 0.103283 0.104407 0.104407 0.10551 0.10551 0.10659 0.10659 0.107644 0.107644 0.108671 0.108671 0.109667 0.109667 0.110632 0.110632 0.111562 0.111562 0.112454 0.112454 0.113307 0.113307 0.114117 0.114117 0.114883 0.114883 0.115601 0.115601 0.116269 0.116269 0.116883 0.116883 0.117442 0.117442 0.117943 0.117943 0.118381 0.118381 0.118756 0.118756 0.119063 0.119063 0.1193 0.1193 0.119464 0.119464 0.119552 0.119552 0.11956 0.11956 0.119487 0.119487 0.119329 0.119329 0.119083 0.119083 0.118746 0.118746 0.118315 0.118315 0.117787 0.117787 0.11716 0.11716 0.11643 0.11643 0.115595 0.115595 0.114652 0.114652 0.113599 0.113599 0.112431 0.112431 0.111148 0.111148 0.109746 0.109746 0.108222 0.108222 0.106575 0.106575 0.104802 0.104802 0.102901 0.102901 0.10087 0.10087 0.0987058 0.0987058 0.0964075 0.0964075 0.093973 0.093973 0.0914005 0.0914005 0.0886884 0.0886884 0.0858353 0.0858353 0.0828397 0.0828397 0.0797006 0.0797006 0.0764168 0.0764168 0.0729873 0.0729873 0.0694115 0.0694115 0.0656886 0.0656886 0.0618184 0.0618184 0.0578004 0.0578004 0.0536346 0.0536346 0.049321 0.049321 0.0448599 0.0448599 0.0402517 0.0402517 0.035497 0.035497 0.0305967 0.0305967 0.0255516 0.0255516 0.0203631 0.0203631 0.0150324 0.0150324 0.00956118 0.00956118 0.0039512 0.0039512 -0.00179557 -0.00179557 -0.00767693 -0.00767693 -0.0136905 -0.0136905 -0.0198337 -0.0198337 -0.0261038 -0.0261038 -0.0324977 -0.0324977 -0.0390123 -0.0390123 -0.0456442 -0.0456442 -0.0523898 -0.0523898 -0.0592453 -0.0592453 -0.0662068 -0.0662068 -0.07327 -0.07327 -0.0804307 -0.0804307 -0.0876844 -0.0876844 -0.0950262 -0.0950262 -0.102451 -0.102451 -0.109955 -0.109955 -0.117531 -0.117531 -0.125176 -0.125176 -0.132882 -0.132882 -0.140645 -0.140645 -0.148458 -0.148458 -0.156317 -0.156317 -0.164214 -0.164214 -0.172143 -0.172143 -0.180099 -0.180099 -0.188074 -0.188074 -0.196062 -0.196062 -0.204058 -0.204058 -0.212053 -0.212053 -0.220041 -0.220041 -0.228017 -0.228017 -0.235971 -0.235971 -0.243899 -0.243899 -0.251792 -0.251792 -0.259644 -0.259644 -0.267448 -0.267448 -0.275198 -0.275198 -0.282885 -0.282885 -0.290503 -0.290503 -0.298046 -0.298046 -0.305507 -0.305507 -0.312878 -0.312878 -0.320152 -0.320152 -0.327325 -0.327325 -0.334387 -0.334387 -0.341334 -0.341334 -0.348159 -0.348159 -0.354856 -0.354856 -0.361417 -0.361417 -0.367838 -0.367838 -0.374113 -0.374113 -0.380235 -0.380235 -0.386199 -0.386199 -0.392 -0.392 -0.397632 -0.397632 -0.403091 -0.403091 -0.408371 -0.408371 -0.413467 -0.413467 -0.418376 -0.418376 -0.423093 -0.423093 -0.427614 -0.427614 -0.431935 -0.431935 -0.436052 -0.436052 -0.439962 -0.439962 -0.443662 -0.443662 -0.447148 -0.447148 -0.450419 -0.450419 -0.453472 -0.453472 -0.456304 -0.456304 -0.458914 -0.458914 -0.4613 -0.4613 -0.463461 -0.463461 -0.465395 -0.465395 -0.467101 -0.467101 -0.46858 -0.46858 -0.469829 -0.469829 -0.47085 -0.47085 -0.471642 -0.471642 -0.472207 -0.472207 -0.472543 -0.472543 -0.472653 -0.472653 -0.472537 -0.472537 -0.472197 -0.472197 -0.471634 -0.471634 -0.470851 -0.470851 -0.469849 -0.469849 -0.46863 -0.46863 -0.467198 -0.467198 -0.465554 -0.465554 -0.463703 -0.463703 -0.461646 -0.461646 -0.459387 -0.459387 -0.456931 -0.456931 -0.45428 -0.45428 -0.451438 -0.451438 -0.44841 -0.44841 -0.4452 -0.4452 -0.441813 -0.441813 -0.438252 -0.438252 -0.434522 -0.434522 -0.430629 -0.430629 -0.426577 -0.426577 -0.422372 -0.422372 -0.418018 -0.418018 -0.413521 -0.413521 -0.408886 -0.408886 -0.404118 -0.404118 -0.399223 -0.399223 -0.394207 -0.394207 -0.389076 -0.389076 -0.383834 -0.383834 -0.378488 -0.378488 -0.373043 -0.373043 -0.367505 -0.367505 -0.36188 -0.36188 -0.356173 -0.356173 -0.350391 -0.350391 -0.344539 -0.344539 -0.338623 -0.338623 -0.332649 -0.332649 -0.326621 -0.326621 -0.320546 -0.320546 -0.31443 -0.31443 -0.308277 -0.308277 -0.302094 -0.302094 -0.295886 -0.295886 -0.289657 -0.289657 -0.283414 -0.283414 -0.277161 -0.277161 -0.270903 -0.270903 -0.264646 -0.264646 -0.258393 -0.258393 -0.252151 -0.252151 -0.245923 -0.245923 -0.239714 -0.239714 -0.233528 -0.233528 -0.22737 -0.22737 -0.221243 -0.221243 -0.215152 -0.215152 -0.209101 -0.209101 -0.203093 -0.203093 -0.197132 -0.197132 -0.191221 -0.191221 -0.185364 -0.185364 -0.179563 -0.179563 -0.173823 -0.173823 -0.168145 -0.168145 -0.162533 -0.162533 -0.156988 -0.156988 -0.151515 -0.151515 -0.146114 -0.146114 -0.140788 -0.140788 -0.135539 -0.135539 -0.13037 -0.13037 -0.125281 -0.125281 -0.120274 -0.120274 -0.115351 -0.115351 -0.110514 -0.110514 -0.105763 -0.105763 -0.101099 -0.101099 -0.0965236 -0.0965236 -0.0920376 -0.0920376 -0.0876416 -0.0876416 -0.0833362 -0.0833362 -0.0791219 -0.0791219 -0.074999 -0.074999 -0.0709677 -0.0709677 -0.0670282 -0.0670282 -0.0631806 -0.0631806 -0.0594247 -0.0594247 -0.0557604 -0.0557604 -0.0521875 -0.0521875 -0.0487055 -0.0487055 -0.0453141 -0.0453141 -0.0420127 -0.0420127 -0.0388007 -0.0388007 -0.0356774 -0.0356774 -0.0326421 -0.0326421 -0.0296939 -0.0296939 -0.0268319 -0.0268319 -0.0240552 -0.0240552 -0.0213628 -0.0213628 -0.0187536 -0.0187536 -0.0162264 -0.0162264 -0.0137801 -0.0137801 -0.0114135 -0.0114135 -0.00912526 -0.00912526 -0.00691413 -0.00691413 -0.00477876 -0.00477876 -0.00271777 -0.00271777 -0.000729769 -0.000729769 0.00118667 0.00118667 0.00303299 0.00303299 0.00481068 0.00481068 0.00652121 0.00652121 0.00816608 0.00816608 0.00974682 0.00974682 0.0112649 0.0112649 0.012722 0.012722 0.0141195 0.0141195 0.0154589 0.0154589 0.0167419 0.0167419 0.01797 0.01797 0.0191446 0.0191446 0.0202673 0.0202673 0.0213397 0.0213397 0.0223632 0.0223632 0.0233394 0.0233394 0.0242696 0.0242696 0.0251554 0.0251554 0.0259983 0.0259983 0.0267996 0.0267996 0.0275607 0.0275607 0.0282832 0.0282832 0.0289683 0.0289683 0.0296173 0.0296173 0.0302317 0.0302317 0.0308128 0.0308128 0.0313617 0.0313617 0.0318798 0.0318798 0.0323683 0.0323683 0.0328284 0.0328284 0.0332612 0.0332612 0.033668 0.033668 0.0340498 0.0340498 0.0344078 0.0344078 0.034743 0.034743 0.0350564 0.0350564 0.0353491 0.0353491 0.035622 0.035622 0.0358761 0.0358761 0.0361123 0.0361123 0.0363316 0.0363316 0.0365347 0.0365347 0.0367226 0.0367226 0.036896 0.036896 0.0370558 0.0370558 0.0372027 0.0372027 0.0373374 0.0373374 0.0374606 0.0374606 0.03757