# vtk DataFile Version 3.0
#This file was generated by the deal.II library on 2020/9/1 at 14:41:34
ASCII
DATASET UNSTRUCTURED_GRID

POINTS 2048 double
1.5 0 0
1.59619 0 0
1.59619 0 0
1.69238 0 0
1.69238 0 0
1.78857 0 0
1.78857 0 0
1.88477 0 0
1.88477 0 0
1.98096 0 0
1.98096 0 0
2.07715 0 0
2.07715 0 0
2.17334 0 0
2.17334 0 0
2.26953 0 0
2.26953 0 0
2.36572 0 0
2.36572 0 0
2.46191 0 0
2.46191 0 0
2.55811 0 0
2.55811 0 0
2.6543 0 0
2.6543 0 0
2.75049 0 0
2.75049 0 0
2.84668 0 0
2.84668 0 0
2.94287 0 0
2.94287 0 0
3.03906 0 0
3.03906 0 0
3.13525 0 0
3.13525 0 0
3.23145 0 0
3.23145 0 0
3.32764 0 0
3.32764 0 0
3.42383 0 0
3.42383 0 0
3.52002 0 0
3.52002 0 0
3.61621 0 0
3.61621 0 0
3.7124 0 0
3.7124 0 0
3.80859 0 0
3.80859 0 0
3.90479 0 0
3.90479 0 0
4.00098 0 0
4.00098 0 0
4.09717 0 0
4.09717 0 0
4.19336 0 0
4.19336 0 0
4.28955 0 0
4.28955 0 0
4.38574 0 0
4.38574 0 0
4.48193 0 0
4.48193 0 0
4.57812 0 0
4.57812 0 0
4.67432 0 0
4.67432 0 0
4.77051 0 0
4.77051 0 0
4.8667 0 0
4.8667 0 0
4.96289 0 0
4.96289 0 0
5.05908 0 0
5.05908 0 0
5.15527 0 0
5.15527 0 0
5.25146 0 0
5.25146 0 0
5.34766 0 0
5.34766 0 0
5.44385 0 0
5.44385 0 0
5.54004 0 0
5.54004 0 0
5.63623 0 0
5.63623 0 0
5.73242 0 0
5.73242 0 0
5.82861 0 0
5.82861 0 0
5.9248 0 0
5.9248 0 0
6.021 0 0
6.021 0 0
6.11719 0 0
6.11719 0 0
6.21338 0 0
6.21338 0 0
6.30957 0 0
6.30957 0 0
6.40576 0 0
6.40576 0 0
6.50195 0 0
6.50195 0 0
6.59814 0 0
6.59814 0 0
6.69434 0 0
6.69434 0 0
6.79053 0 0
6.79053 0 0
6.88672 0 0
6.88672 0 0
6.98291 0 0
6.98291 0 0
7.0791 0 0
7.0791 0 0
7.17529 0 0
7.17529 0 0
7.27148 0 0
7.27148 0 0
7.36768 0 0
7.36768 0 0
7.46387 0 0
7.46387 0 0
7.56006 0 0
7.56006 0 0
7.65625 0 0
7.65625 0 0
7.75244 0 0
7.75244 0 0
7.84863 0 0
7.84863 0 0
7.94482 0 0
7.94482 0 0
8.04102 0 0
8.04102 0 0
8.13721 0 0
8.13721 0 0
8.2334 0 0
8.2334 0 0
8.32959 0 0
8.32959 0 0
8.42578 0 0
8.42578 0 0
8.52197 0 0
8.52197 0 0
8.61816 0 0
8.61816 0 0
8.71436 0 0
8.71436 0 0
8.81055 0 0
8.81055 0 0
8.90674 0 0
8.90674 0 0
9.00293 0 0
9.00293 0 0
9.09912 0 0
9.09912 0 0
9.19531 0 0
9.19531 0 0
9.2915 0 0
9.2915 0 0
9.3877 0 0
9.3877 0 0
9.48389 0 0
9.48389 0 0
9.58008 0 0
9.58008 0 0
9.67627 0 0
9.67627 0 0
9.77246 0 0
9.77246 0 0
9.86865 0 0
9.86865 0 0
9.96484 0 0
9.96484 0 0
10.061 0 0
10.061 0 0
10.1572 0 0
10.1572 0 0
10.2534 0 0
10.2534 0 0
10.3496 0 0
10.3496 0 0
10.4458 0 0
10.4458 0 0
10.542 0 0
10.542 0 0
10.6382 0 0
10.6382 0 0
10.7344 0 0
10.7344 0 0
10.8306 0 0
10.8306 0 0
10.9268 0 0
10.9268 0 0
11.0229 0 0
11.0229 0 0
11.1191 0 0
11.1191 0 0
11.2153 0 0
11.2153 0 0
11.3115 0 0
11.3115 0 0
11.4077 0 0
11.4077 0 0
11.5039 0 0
11.5039 0 0
11.6001 0 0
11.6001 0 0
11.6963 0 0
11.6963 0 0
11.7925 0 0
11.7925 0 0
11.8887 0 0
11.8887 0 0
11.9849 0 0
11.9849 0 0
12.0811 0 0
12.0811 0 0
12.1772 0 0
12.1772 0 0
12.2734 0 0
12.2734 0 0
12.3696 0 0
12.3696 0 0
12.4658 0 0
12.4658 0 0
12.562 0 0
12.562 0 0
12.6582 0 0
12.6582 0 0
12.7544 0 0
12.7544 0 0
12.8506 0 0
12.8506 0 0
12.9468 0 0
12.9468 0 0
13.043 0 0
13.043 0 0
13.1392 0 0
13.1392 0 0
13.2354 0 0
13.2354 0 0
13.3315 0 0
13.3315 0 0
13.4277 0 0
13.4277 0 0
13.5239 0 0
13.5239 0 0
13.6201 0 0
13.6201 0 0
13.7163 0 0
13.7163 0 0
13.8125 0 0
13.8125 0 0
13.9087 0 0
13.9087 0 0
14.0049 0 0
14.0049 0 0
14.1011 0 0
14.1011 0 0
14.1973 0 0
14.1973 0 0
14.2935 0 0
14.2935 0 0
14.3896 0 0
14.3896 0 0
14.4858 0 0
14.4858 0 0
14.582 0 0
14.582 0 0
14.6782 0 0
14.6782 0 0
14.7744 0 0
14.7744 0 0
14.8706 0 0
14.8706 0 0
14.9668 0 0
14.9668 0 0
15.063 0 0
15.063 0 0
15.1592 0 0
15.1592 0 0
15.2554 0 0
15.2554 0 0
15.3516 0 0
15.3516 0 0
15.4478 0 0
15.4478 0 0
15.5439 0 0
15.5439 0 0
15.6401 0 0
15.6401 0 0
15.7363 0 0
15.7363 0 0
15.8325 0 0
15.8325 0 0
15.9287 0 0
15.9287 0 0
16.0249 0 0
16.0249 0 0
16.1211 0 0
16.1211 0 0
16.2173 0 0
16.2173 0 0
16.3135 0 0
16.3135 0 0
16.4097 0 0
16.4097 0 0
16.5059 0 0
16.5059 0 0
16.6021 0 0
16.6021 0 0
16.6982 0 0
16.6982 0 0
16.7944 0 0
16.7944 0 0
16.8906 0 0
16.8906 0 0
16.9868 0 0
16.9868 0 0
17.083 0 0
17.083 0 0
17.1792 0 0
17.1792 0 0
17.2754 0 0
17.2754 0 0
17.3716 0 0
17.3716 0 0
17.4678 0 0
17.4678 0 0
17.564 0 0
17.564 0 0
17.6602 0 0
17.6602 0 0
17.7563 0 0
17.7563 0 0
17.8525 0 0
17.8525 0 0
17.9487 0 0
17.9487 0 0
18.0449 0 0
18.0449 0 0
18.1411 0 0
18.1411 0 0
18.2373 0 0
18.2373 0 0
18.3335 0 0
18.3335 0 0
18.4297 0 0
18.4297 0 0
18.5259 0 0
18.5259 0 0
18.6221 0 0
18.6221 0 0
18.7183 0 0
18.7183 0 0
18.8145 0 0
18.8145 0 0
18.9106 0 0
18.9106 0 0
19.0068 0 0
19.0068 0 0
19.103 0 0
19.103 0 0
19.1992 0 0
19.1992 0 0
19.2954 0 0
19.2954 0 0
19.3916 0 0
19.3916 0 0
19.4878 0 0
19.4878 0 0
19.584 0 0
19.584 0 0
19.6802 0 0
19.6802 0 0
19.7764 0 0
19.7764 0 0
19.8726 0 0
19.8726 0 0
19.9688 0 0
19.9688 0 0
20.0649 0 0
20.0649 0 0
20.1611 0 0
20.1611 0 0
20.2573 0 0
20.2573 0 0
20.3535 0 0
20.3535 0 0
20.4497 0 0
20.4497 0 0
20.5459 0 0
20.5459 0 0
20.6421 0 0
20.6421 0 0
20.7383 0 0
20.7383 0 0
20.8345 0 0
20.8345 0 0
20.9307 0 0
20.9307 0 0
21.0269 0 0
21.0269 0 0
21.123 0 0
21.123 0 0
21.2192 0 0
21.2192 0 0
21.3154 0 0
21.3154 0 0
21.4116 0 0
21.4116 0 0
21.5078 0 0
21.5078 0 0
21.604 0 0
21.604 0 0
21.7002 0 0
21.7002 0 0
21.7964 0 0
21.7964 0 0
21.8926 0 0
21.8926 0 0
21.9888 0 0
21.9888 0 0
22.085 0 0
22.085 0 0
22.1812 0 0
22.1812 0 0
22.2773 0 0
22.2773 0 0
22.3735 0 0
22.3735 0 0
22.4697 0 0
22.4697 0 0
22.5659 0 0
22.5659 0 0
22.6621 0 0
22.6621 0 0
22.7583 0 0
22.7583 0 0
22.8545 0 0
22.8545 0 0
22.9507 0 0
22.9507 0 0
23.0469 0 0
23.0469 0 0
23.1431 0 0
23.1431 0 0
23.2393 0 0
23.2393 0 0
23.3354 0 0
23.3354 0 0
23.4316 0 0
23.4316 0 0
23.5278 0 0
23.5278 0 0
23.624 0 0
23.624 0 0
23.7202 0 0
23.7202 0 0
23.8164 0 0
23.8164 0 0
23.9126 0 0
23.9126 0 0
24.0088 0 0
24.0088 0 0
24.105 0 0
24.105 0 0
24.2012 0 0
24.2012 0 0
24.2974 0 0
24.2974 0 0
24.3936 0 0
24.3936 0 0
24.4897 0 0
24.4897 0 0
24.5859 0 0
24.5859 0 0
24.6821 0 0
24.6821 0 0
24.7783 0 0
24.7783 0 0
24.8745 0 0
24.8745 0 0
24.9707 0 0
24.9707 0 0
25.0669 0 0
25.0669 0 0
25.1631 0 0
25.1631 0 0
25.2593 0 0
25.2593 0 0
25.3555 0 0
25.3555 0 0
25.4517 0 0
25.4517 0 0
25.5479 0 0
25.5479 0 0
25.644 0 0
25.644 0 0
25.7402 0 0
25.7402 0 0
25.8364 0 0
25.8364 0 0
25.9326 0 0
25.9326 0 0
26.0288 0 0
26.0288 0 0
26.125 0 0
26.125 0 0
26.2212 0 0
26.2212 0 0
26.3174 0 0
26.3174 0 0
26.4136 0 0
26.4136 0 0
26.5098 0 0
26.5098 0 0
26.606 0 0
26.606 0 0
26.7021 0 0
26.7021 0 0
26.7983 0 0
26.7983 0 0
26.8945 0 0
26.8945 0 0
26.9907 0 0
26.9907 0 0
27.0869 0 0
27.0869 0 0
27.1831 0 0
27.1831 0 0
27.2793 0 0
27.2793 0 0
27.3755 0 0
27.3755 0 0
27.4717 0 0
27.4717 0 0
27.5679 0 0
27.5679 0 0
27.6641 0 0
27.6641 0 0
27.7603 0 0
27.7603 0 0
27.8564 0 0
27.8564 0 0
27.9526 0 0
27.9526 0 0
28.0488 0 0
28.0488 0 0
28.145 0 0
28.145 0 0
28.2412 0 0
28.2412 0 0
28.3374 0 0
28.3374 0 0
28.4336 0 0
28.4336 0 0
28.5298 0 0
28.5298 0 0
28.626 0 0
28.626 0 0
28.7222 0 0
28.7222 0 0
28.8184 0 0
28.8184 0 0
28.9146 0 0
28.9146 0 0
29.0107 0 0
29.0107 0 0
29.1069 0 0
29.1069 0 0
29.2031 0 0
29.2031 0 0
29.2993 0 0
29.2993 0 0
29.3955 0 0
29.3955 0 0
29.4917 0 0
29.4917 0 0
29.5879 0 0
29.5879 0 0
29.6841 0 0
29.6841 0 0
29.7803 0 0
29.7803 0 0
29.8765 0 0
29.8765 0 0
29.9727 0 0
29.9727 0 0
30.0688 0 0
30.0688 0 0
30.165 0 0
30.165 0 0
30.2612 0 0
30.2612 0 0
30.3574 0 0
30.3574 0 0
30.4536 0 0
30.4536 0 0
30.5498 0 0
30.5498 0 0
30.646 0 0
30.646 0 0
30.7422 0 0
30.7422 0 0
30.8384 0 0
30.8384 0 0
30.9346 0 0
30.9346 0 0
31.0308 0 0
31.0308 0 0
31.127 0 0
31.127 0 0
31.2231 0 0
31.2231 0 0
31.3193 0 0
31.3193 0 0
31.4155 0 0
31.4155 0 0
31.5117 0 0
31.5117 0 0
31.6079 0 0
31.6079 0 0
31.7041 0 0
31.7041 0 0
31.8003 0 0
31.8003 0 0
31.8965 0 0
31.8965 0 0
31.9927 0 0
31.9927 0 0
32.0889 0 0
32.0889 0 0
32.1851 0 0
32.1851 0 0
32.2812 0 0
32.2812 0 0
32.3774 0 0
32.3774 0 0
32.4736 0 0
32.4736 0 0
32.5698 0 0
32.5698 0 0
32.666 0 0
32.666 0 0
32.7622 0 0
32.7622 0 0
32.8584 0 0
32.8584 0 0
32.9546 0 0
32.9546 0 0
33.0508 0 0
33.0508 0 0
33.147 0 0
33.147 0 0
33.2432 0 0
33.2432 0 0
33.3394 0 0
33.3394 0 0
33.4355 0 0
33.4355 0 0
33.5317 0 0
33.5317 0 0
33.6279 0 0
33.6279 0 0
33.7241 0 0
33.7241 0 0
33.8203 0 0
33.8203 0 0
33.9165 0 0
33.9165 0 0
34.0127 0 0
34.0127 0 0
34.1089 0 0
34.1089 0 0
34.2051 0 0
34.2051 0 0
34.3013 0 0
34.3013 0 0
34.3975 0 0
34.3975 0 0
34.4937 0 0
34.4937 0 0
34.5898 0 0
34.5898 0 0
34.686 0 0
34.686 0 0
34.7822 0 0
34.7822 0 0
34.8784 0 0
34.8784 0 0
34.9746 0 0
34.9746 0 0
35.0708 0 0
35.0708 0 0
35.167 0 0
35.167 0 0
35.2632 0 0
35.2632 0 0
35.3594 0 0
35.3594 0 0
35.4556 0 0
35.4556 0 0
35.5518 0 0
35.5518 0 0
35.6479 0 0
35.6479 0 0
35.7441 0 0
35.7441 0 0
35.8403 0 0
35.8403 0 0
35.9365 0 0
35.9365 0 0
36.0327 0 0
36.0327 0 0
36.1289 0 0
36.1289 0 0
36.2251 0 0
36.2251 0 0
36.3213 0 0
36.3213 0 0
36.4175 0 0
36.4175 0 0
36.5137 0 0
36.5137 0 0
36.6099 0 0
36.6099 0 0
36.7061 0 0
36.7061 0 0
36.8022 0 0
36.8022 0 0
36.8984 0 0
36.8984 0 0
36.9946 0 0
36.9946 0 0
37.0908 0 0
37.0908 0 0
37.187 0 0
37.187 0 0
37.2832 0 0
37.2832 0 0
37.3794 0 0
37.3794 0 0
37.4756 0 0
37.4756 0 0
37.5718 0 0
37.5718 0 0
37.668 0 0
37.668 0 0
37.7642 0 0
37.7642 0 0
37.8604 0 0
37.8604 0 0
37.9565 0 0
37.9565 0 0
38.0527 0 0
38.0527 0 0
38.1489 0 0
38.1489 0 0
38.2451 0 0
38.2451 0 0
38.3413 0 0
38.3413 0 0
38.4375 0 0
38.4375 0 0
38.5337 0 0
38.5337 0 0
38.6299 0 0
38.6299 0 0
38.7261 0 0
38.7261 0 0
38.8223 0 0
38.8223 0 0
38.9185 0 0
38.9185 0 0
39.0146 0 0
39.0146 0 0
39.1108 0 0
39.1108 0 0
39.207 0 0
39.207 0 0
39.3032 0 0
39.3032 0 0
39.3994 0 0
39.3994 0 0
39.4956 0 0
39.4956 0 0
39.5918 0 0
39.5918 0 0
39.688 0 0
39.688 0 0
39.7842 0 0
39.7842 0 0
39.8804 0 0
39.8804 0 0
39.9766 0 0
39.9766 0 0
40.0728 0 0
40.0728 0 0
40.1689 0 0
40.1689 0 0
40.2651 0 0
40.2651 0 0
40.3613 0 0
40.3613 0 0
40.4575 0 0
40.4575 0 0
40.5537 0 0
40.5537 0 0
40.6499 0 0
40.6499 0 0
40.7461 0 0
40.7461 0 0
40.8423 0 0
40.8423 0 0
40.9385 0 0
40.9385 0 0
41.0347 0 0
41.0347 0 0
41.1309 0 0
41.1309 0 0
41.2271 0 0
41.2271 0 0
[...]
POINT_DATA 2048
SCALARS solution_0 double 1
LOOKUP_TABLE default
0.0310982 0.0324512 0.0324512 0.0337561 0.0337561 0.0350453 0.0350453 0.0363444 0.0363444 0.0376736 0.0376736 0.0390497 0.0390497 0.0404866 0.0404866 0.0419963 0.0419963 0.0435892 0.0435892 0.0452745 0.0452745 0.0470606 0.0470606 0.0489552 0.0489552 0.0509653 0.0509653 0.0530976 0.0530976 0.0553584 0.0553584 0.0577535 0.0577535 0.0602888 0.0602888 0.0629697 0.0629697 0.0658017 0.0658017 0.0687898 0.0687898 0.0719391 0.0719391 0.0752545 0.0752545 0.0787408 0.0787408 0.0824027 0.0824027 0.0862447 0.0862447 0.0902712 0.0902712 0.0944867 0.0944867 0.0988952 0.0988952 0.103501 0.103501 0.108308 0.108308 0.11332 0.11332 0.11854 0.11854 0.123973 0.123973 0.129622 0.129622 0.135489 0.135489 0.141578 0.141578 0.147892 0.147892 0.154433 0.154433 0.161205 0.161205 0.168208 0.168208 0.175446 0.175446 0.182919 0.182919 0.190631 0.190631 0.198581 0.198581 0.206771 0.206771 0.215202 0.215202 0.223874 0.223874 0.232788 0.232788 0.241942 0.241942 0.251338 0.251338 0.260973 0.260973 0.270847 0.270847 0.280959 0.280959 0.291306 0.291306 0.301886 0.301886 0.312698 0.312698 0.323737 0.323737 0.335 0.335 0.346484 0.346484 0.358184 0.358184 0.370096 0.370096 0.382215 0.382215 0.394535 0.394535 0.407051 0.407051 0.419755 0.419755 0.432642 0.432642 0.445703 0.445703 0.458932 0.458932 0.47232 0.47232 0.485858 0.485858 0.499538 0.499538 0.51335 0.51335 0.527283 0.527283 0.541328 0.541328 0.555474 0.555474 0.569709 0.569709 0.584021 0.584021 0.598398 0.598398 0.612828 0.612828 0.627298 0.627298 0.641793 0.641793 0.656301 0.656301 0.670806 0.670806 0.685294 0.685294 0.699751 0.699751 0.71416 0.71416 0.728505 0.728505 0.742772 0.742772 0.756943 0.756943 0.771002 0.771002 0.784931 0.784931 0.798713 0.798713 0.812331 0.812331 0.825768 0.825768 0.839004 0.839004 0.852023 0.852023 0.864805 0.864805 0.877333 0.877333 0.889588 0.889588 0.901551 0.901551 0.913203 0.913203 0.924526 0.924526 0.935501 0.935501 0.94611 0.94611 0.956334 0.956334 0.966154 0.966154 0.975551 0.975551 0.984508 0.984508 0.993007 0.993007 1.00103 1.00103 1.00856 1.00856 1.01557 1.01557 1.02206 1.02206 1.028 1.028 1.03338 1.03338 1.03817 1.03817 1.04238 1.04238 1.04597 1.04597 1.04894 1.04894 1.05128 1.05128 1.05295 1.05295 1.05397 1.05397 1.0543 1.0543 1.05394 1.05394 1.05288 1.05288 1.05111 1.05111 1.04861 1.04861 1.04538 1.04538 1.04141 1.04141 1.03669 1.03669 1.03121 1.03121 1.02497 1.02497 1.01796 1.01796 1.01018 1.01018 1.00162 1.00162 0.992277 0.992277 0.982154 0.982154 0.971248 0.971248 0.959558 0.959558 0.947084 0.947084 0.933829 0.933829 0.919794 0.919794 0.904983 0.904983 0.889401 0.889401 0.873052 0.873052 0.855943 0.855943 0.838081 0.838081 0.819475 0.819475 0.800132 0.800132 0.780064 0.780064 0.75928 0.75928 0.737794 0.737794 0.715617 0.715617 0.692764 0.692764 0.669248 0.669248 0.645086 0.645086 0.620294 0.620294 0.594888 0.594888 0.568887 0.568887 0.54231 0.54231 0.515175 0.515175 0.487503 0.487503 0.459316 0.459316 0.430635 0.430635 0.401482 0.401482 0.37188 0.37188 0.341854 0.341854 0.311426 0.311426 0.280623 0.280623 0.249469 0.249469 0.21799 0.21799 0.186212 0.186212 0.154162 0.154162 0.121868 0.121868 0.0893557 0.0893557 0.0566538 0.0566538 0.0237901 0.0237901 -0.00920732 -0.00920732 -0.04231 -0.04231 -0.0754894 -0.0754894 -0.108717 -0.108717 -0.141964 -0.141964 -0.175201 -0.175201 -0.208401 -0.208401 -0.241533 -0.241533 -0.27457 -0.27457 -0.307484 -0.307484 -0.340245 -0.340245 -0.372825 -0.372825 -0.405198 -0.405198 -0.437335 -0.437335 -0.469209 -0.469209 -0.500793 -0.500793 -0.53206 -0.53206 -0.562985 -0.562985 -0.593542 -0.593542 -0.623706 -0.623706 -0.653452 -0.653452 -0.682756 -0.682756 -0.711595 -0.711595 -0.739946 -0.739946 -0.767787 -0.767787 -0.795095 -0.795095 -0.821852 -0.821852 -0.848035 -0.848035 -0.873627 -0.873627 -0.898608 -0.898608 -0.922961 -0.922961 -0.946669 -0.946669 -0.969716 -0.969716 -0.992086 -0.992086 -1.01376 -1.01376 -1.03474 -1.03474 -1.055 -1.055 -1.07453 -1.07453 -1.09331 -1.09331 -1.11135 -1.11135 -1.12863 -1.12863 -1.14515 -1.14515 -1.16089 -1.16089 -1.17584 -1.17584 -1.19002 -1.19002 -1.2034 -1.2034 -1.21599 -1.21599 -1.22778 -1.22778 -1.23878 -1.23878 -1.24897 -1.24897 -1.25837 -1.25837 -1.26697 -1.26697 -1.27477 -1.27477 -1.28178 -1.28178 -1.288 -1.288 -1.29344 -1.29344 -1.29809 -1.29809 -1.30197 -1.30197 -1.30508 -1.30508 -1.30744 -1.30744 -1.30904 -1.30904 -1.30989 -1.30989 -1.31001 -1.31001 -1.30941 -1.30941 -1.3081 -1.3081 -1.30609 -1.30609 -1.30338 -1.30338 -1.3 -1.3 -1.29596 -1.29596 -1.29127 -1.29127 -1.28594 -1.28594 -1.27999 -1.27999 -1.27343 -1.27343 -1.26629 -1.26629 -1.25857 -1.25857 -1.2503 -1.2503 -1.24148 -1.24148 -1.23213 -1.23213 -1.22228 -1.22228 -1.21194 -1.21194 -1.20113 -1.20113 -1.18986 -1.18986 -1.17816 -1.17816 -1.16603 -1.16603 -1.1535 -1.1535 -1.1406 -1.1406 -1.12732 -1.12732 -1.1137 -1.1137 -1.09976 -1.09976 -1.0855 -1.0855 -1.07095 -1.07095 -1.05613 -1.05613 -1.04105 -1.04105 -1.02573 -1.02573 -1.01019 -1.01019 -0.994457 -0.994457 -0.978534 -0.978534 -0.962443 -0.962443 -0.946202 -0.946202 -0.929827 -0.929827 -0.913335 -0.913335 -0.896742 -0.896742 -0.880064 -0.880064 -0.863317 -0.863317 -0.846516 -0.846516 -0.829676 -0.829676 -0.812812 -0.812812 -0.795939 -0.795939 -0.77907 -0.77907 -0.762219 -0.762219 -0.745399 -0.745399 -0.728623 -0.728623 -0.711905 -0.711905 -0.695255 -0.695255 -0.678686 -0.678686 -0.662209 -0.662209 -0.645835 -0.645835 -0.629575 -0.629575 -0.613438 -0.613438 -0.597434 -0.597434 -0.581573 -0.581573 -0.565863 -0.565863 -0.550314 -0.550314 -0.534931 -0.534931 -0.519725 -0.519725 -0.5047 -0.5047 -0.489866 -0.489866 -0.475227 -0.475227 -0.460789 -0.460789 -0.446559 -0.446559 -0.432542 -0.432542 -0.418742 -0.418742 -0.405163 -0.405163 -0.39181 -0.39181 -0.378687 -0.378687 -0.365796 -0.365796 -0.353141 -0.353141 -0.340724 -0.340724 -0.328548 -0.328548 -0.316613 -0.316613 -0.304923 -0.304923 -0.293479 -0.293479 -0.28228 -0.28228 -0.271328 -0.271328 -0.260624 -0.260624 -0.250167 -0.250167 -0.239958 -0.239958 -0.229995 -0.229995 -0.220279 -0.220279 -0.210808 -0.210808 -0.201581 -0.201581 -0.192597 -0.192597 -0.183854 -0.183854 -0.175351 -0.175351 -0.167085 -0.167085 -0.159055 -0.159055 -0.151257 -0.151257 -0.143691 -0.143691 -0.136352 -0.136352 -0.129239 -0.129239 -0.122347 -0.122347 -0.115675 -0.115675 -0.10922 -0.10922 -0.102976 -0.102976 -0.0969428 -0.0969428 -0.0911151 -0.0911151 -0.0854898 -0.0854898 -0.0800634 -0.0800634 -0.074832 -0.074832 -0.0697921 -0.0697921 -0.0649397 -0.0649397 -0.060271 -0.060271 -0.0557821 -0.0557821 -0.0514691 -0.0514691 -0.0473281 -0.0473281 -0.043355 -0.043355 -0.039546 -0.039546 -0.0358969 -0.0358969 -0.0324038 -0.0324038 -0.0290628 -0.0290628 -0.0258697 -0.0258697 -0.0228208 -0.0228208 -0.0199119 -0.0199119 -0.0171392 -0.0171392 -0.0144988 -0.0144988 -0.0119868 -0.0119868 -0.00959937 -0.00959937 -0.00733267 -0.00733267 -0.00518298 -0.00518298 -0.00314656 -0.00314656 -0.00121975 -0.00121975 0.000601063 0.000601063 0.00231946 0.00231946 0.00393894 0.00393894 0.00546297 0.00546297 0.00689494 0.00689494 0.00823819 0.00823819 0.009496 0.009496 0.0106716 0.0106716 0.011768 0.011768 0.0127885 0.0127885 0.013736 0.013736 0.0146134 0.0146134 0.0154237 0.0154237 0.0161696 0.0161696 0.0168538 0.0168538 0.0174791 0.0174791 0.0180481 0.0180481 0.0185632 0.0185632 0.0190269 0.0190269 0.0194417 0.0194417 0.0198098 0.0198098 0.0201335 0.0201335 0.0204151 0.0204151 0.0206565 0.0206565 0.0208598 0.0208598 0.0210271 0.0210271 0.0211603 0.0211603 0.0212611 0.0212611 0.0213315 0.0213315 0.0213731 0.0213731 0.0213875 0.0213875 0.0213765 0.0213765 0.0213415 0.0213415 0.021284 0.021284 0.0212054 0.0212054 0.0211072 0.0211072 0.0209907 0.0209907 0.020857 0.020857 0.0207074 0.0207074 0.0205431 0.0205431 0.0203652 0.0203652 0.0201747 0.0201747 0.0199727 0.0199727 0.01976 0.01976 0.0195377 0.0195377 0.0193067 0.0193067 0.0190676 0.0190676 0.0188214 0.0188214 0.0185688 0.0185688 0.0183105 0.0183105 0.0180472 0.0180472 0.0177795 0.0177795 0.0175081 0.0175081 0.0172335 0.0172335 0.0169562 0.0169562 0.0166768 0.0166768 0.0163957 0.0163957 0.0161134 0.0161134 0.0158303 0.0158303 0.0155469 0.0155469 0.0152634 0.0152634 0.0149803 0.0149803 0.0146978 0.0146978 0.0144163 0.0144163 0.014136 0.014136 0.0138572 0.0138572 0.0135802 0.0135802 0.0133051 0.0133051 0.0130322 0.0130322 0.0127616 0.0127616 0.0124935 0.0124935 0.0122281 0.0122281 0.0119655 0.0119655 0.0117059 0.0117059 0.0114493 0.0114493 0.0111958 0.0111958 0.0109456 0.0109456 0.0106987 0.0106987 0.0104552 0.0104552 0.0102152 0.0102152 0.00997859 0.00997859 0.00974555 0.00974555 0.00951608 0.00951608 0.00929019 0.00929019 0.00906791 0.00906791 0.00884925 0.00884925 0.00863421 0.00863421 0.00842279 0.00842279 0.00821498 0.00821498 0.00801077 0.00801077 0.00781015 0.00781015 0.0076131 0.0076131 0.00741959 0.00741959 0.00722959 0.00722959 0.00704307 0.00704307 0.00686001 0.00686001 0.00668035 0.00668035 0.00650408 0.00650408 0.00633113 0.00633113 0.00616148 0.00616148 0.00599507 0.00599507 0.00583186 0.00583186 0.00567181 0.00567181 0.00551486 0.00551486 0.00536097 0.00536097 0.00521008 0.00521008 0.00506214 0.00506214 0.00491711 0.00491711 0.00477493 0.00477493 0.00463555 0.00463555 0.00449891 0.00449891 0.00436498 0.00436498 0.00423368 0.00423368 0.00410498 0.00410498 0.00397882 0.00397882 0.00385515 0.00385515 0.00373392 0.00373392 0.00361508 0.00361508 0.00349858 0.00349858 0.00338437 0.00338437 0.0032724 0.0032724 0.00316262 0.00316262 0.003055 0.003055 0.00294947 0.00294947 0.002846 0.002846 0.00274454 0.00274454 0.00264504 0.00264504 0.00254747 0.00254747 0.00245178 0.00245178 0.00235793 0.00235793 0.00226588 0.00226588 0.00217559 0.00217559 0.00208702 0.00208702 0.00200013 0.00200013 0.00191489 0.00191489 0.00183125 0.00183125 0.0017492 0.0017492 0.00166868 0.00166868 0.00158967 0.00158967 0.00151213 0.00151213 0.00143604 0.00143604 0.00136135 0.00136135 0.00128805 0.00128805 0.00121611 0.00121611 0.00114548 0.00114548 0.00107615 0.00107615 0.0010081 0.0010081 0.000941285 0.000941285 0.000875692 0.000875692 0.000811293 0.000811293 0.000748066 0.000748066 0.000685986 0.000685986 0.000625033 0.000625033 0.000565185 0.000565185 0.00050642 0.00050642 0.00044872 0.00044872 0.000392064 0.000392064 0.000336434 0.000336434 0.000281812 0.000281812 0.00022818 0.00022818 0.000175521 0.000175521 0.00012382 0.00012382 7.30601e-05 7.30601e-05 2.32268e-05 2.32268e-05 -2.56945e-05 -2.56945e-05 -7.37179e-05 -7.37179e-05 -0.000120857 -0.000120857 -0.000167124 -0.000167124 -0.000212532 -0.000212532 -0.000257093 -0.000257093 -0.000300819 -0.000300819 -0.00034372 -0.00034372 -0.000385806 -0.000385806 -0.000427089 -0.000427089 -0.000467577 -0.000467577 -0.00050728 -0.00050728 -0.000546207 -0.000546207 -0.000584365 -0.000584365 -0.000621764 -0.000621764 -0.000658411 -0.000658411 -0.000694313 -0.000694313 -0.000729477 -0.000729477 -0.000763909 -0.000763909 -0.000797616 -0.000797616 -0.000830604 -0.000830604 -0.000862879 -0.000862879 -0.000894445 -0.000894445 -0.000925307 -0.000925307 -0.000955471 -0.000955471 -0.00098494 -0.00098494 -0.00101372 -0.00101372 -0.00104181 -0.00104181 -0.00106922 -0.00106922 -0.00109595 -0.00109595 -0.00112201 -0.00112201 -0.00114739 -0.00114739 -0.0011721 -0.0011721 -0.00119614 -0.00119614 -0.00121951 -0.00121951 -0.00124222 -0.00124222 -0.00126427 -0.00126427 -0.00128566 -0.00128566 -0.00130639 -0.00130639 -0.00132646 -0.00132646 -0.00134587 -0.00134587 -0.00136463 -0.00136463 -0.00138273 -0.00138273 -0.00140018 -0.00140018 -0.00141697 -0.00141697 -0.00143311 -0.00143311 -0.00144859 -0.00144859 -0.00146343 -0.00146343 -0.00147761 -0.00147761 -0.00149113 -0.00149113 -0.001504 -0.001504 -0.00151622 -0.00151622 -0.00152779 -0.00152779 -0.00153869 -0.00153869 -0.00154895 -0.00154895 -0.00155854 -0.00155854 -0.00156748 -0.00156748 -0.00157577 -0.00157577 -0.00158339 -0.00158339 -0.00159035 -0.00159035 -0.00159665 -0.00159665 -0.00160229 -0.00160229 -0.00160726 -0.00160726 -0.00161157 -0.00161157 -0.00161521 -0.00161521 -0.00161819 -0.00161819 -0.00162049 -0.00162049 -0.00162211 -0.00162211 -0.00162307 -0.00162307 -0.00162334 -0.00162334 -0.00162294 -0.00162294 -0.00162185 -0.00162185 -0.00162008 -0.00162008 -0.00161762 -0.00161762 -0.00161446 -0.00161446 -0.00161061 -0.00161061 -0.00160607 -0.00160607 -0.00160082 -0.00160082 -0.00159486 -0.00159486 -0.00158819 -0.00158819 -0.0015808 -0.0015808 -0.0015727 -0.0015727 -0.00156386 -0.00156386 -0.0015543 -0.0015543 -0.00154399 -0.00154399 -0.00153295 -0.00153295 -0.00152115 -0.00152115 -0.00150859 -0.00150859 -0.00149527 -0.00149527 -0.00148118 -0.00148118 -0.00146631 -0.00146631 -0.00145065 -0.00145065 -0.00143419 -0.00143419 -0.00141692 -0.00141692 -0.00139885 -0.00139885 -0.00137994 -0.00137994 -0.00136021 -0.00136021 -0.00133963 -0.00133963 -0.0013182 -0.0013182 -0.0012959 -0.0012959 -0.00127273 -0.00127273 -0.00124867 -0.00124867 -0.00122372 -0.00122372 -0.00119786 -0.00119786 -0.00117109 -0.00117109 -0.00114339 -0.00114339 -0.00111475 -0.00111475 -0.00108517 -0.00108517 -0.00105462 -0.00105462 -0.00102311 -0.00102311 -0.00099063 -0.00099063 -0.00095716 -0.00095716 -0.000922699 -0.000922699 -0.000887237 -0.000887237 -0.00085077 -0.00085077 -0.000813292 -0.000813292 -0.000774797 -0.000774797 -0.000735282 -0.000735282 -0.000694746 -0.000694746 -0.000653187 -0.000653187 -0.000610605 -0.000610605 -0.000567003 -0.000567003 -0.000522383 -0.000522383 -0.000476751 -0.000476751 -0.000430115 -0.000430115 -0.000382482 -0.000382482 -0.000333865 -0.000333865 -0.000284277 -0.000284277 -0.000233733 -0.000233733 -0.00018225 -0.00018225 -0.000129851 -0.000129851 -7.65564e-05 -7.65564e-05 -2.23931e-05 -2.23931e-05 3.26107e-05 3.26107e-05 8.84239e-05 8.84239e-05 0.000145012 0.000145012 0.000202339 0.000202339 0.000260364 0.000260364 0.000319044 0.000319044 0.000378332 0.000378332 0.00043818 0.00043818 0.000498535 0.000498535 0.000559341 0.000559341 0.000620539 0.000620539 0.000682067 0.000682067 0.000743859 0.000743859 0.000805848 0.000805848 0.000867961 0.000867961 0.000930124 0.000930124 0.00099226 0.00099226 0.00105429 0.00105429 0.00111612 0.00111612 0.00117768 0.00117768 0.00123887 0.00123887 0.0012996 0.0012996 0.00135979 0.00135979 0.00141932 0.00141932 0.0014781 0.0014781 0.00153605 0.00153605 0.00159304 0.00159304 0.00164898 0.00164898 0.00170376 0.00170376 0.00175728 0.00175728 0.00180942 0.00180942 0.00186009 0.00186009 0.00190917 0.00190917 0.00195655 0.00195655 0.00200212 0.00200212 0.00204578 0.00204578 0.0020874 0.0020874 0.00212689 0.00212689 0.00216414 0.00216414 0.00219904 0.00219904 0.00223147 0.00223147 0.00226135 0.00226135 0.00228855 0.00228855 0.00231299 0.00231299 0.00233457 0.00233457 0.00235318 0.00235318 0.00236873 0.00236873 0.00238113 0.00238113 0.0023903 0.0023903 0.00239614 0.00239614 0.00239857 0.00239857 0.00239753 0.00239753 0.00239292 0.00239292 0.00238469 0.00238469 0.00237276 0.00237276 0.00235708 0.00235708 0.00233758 0.00233758 0.00231421 0.00231421 0.00228692 0.00228692 0.00225567 0.00225567 0.00222043 0.00222043 0.00218115 0.00218115 0.00213781 0.00213781 0.00209038 0.00209038 0.00203885 0.00203885 0.00198321 0.00198321 0.00192344 0.00192344 0.00185954 0.00185954 0.00179152 0.00179152 0.00171938 0.00171938 0.00164314 0.00164314 0.00156282 0.00156282 0.00147844 0.00147844 0.00139003 0.00139003 0.00129763 0.00129763 0.00120127 0.00120127 0.001101 0.001101 0.00099687 0.00099687 0.000888935 0.000888935 0.000777254 0.000777254 0.00066189 0.00066189 0.000542913 0.000542913 0.000420395 0.000420395 0.000294413 0.000294413 0.00016505 0.00016505 3.23909e-05 3.23909e-05 -0.000103475 -0.000103475 -0.000242455 -0.000242455 -0.000384452 -0.000384452 -0.000529366 -0.000529366 -0.000677093 -0.000677093 -0.000827526 -0.000827526 -0.000980557 -0.000980557 -0.00113607 -0.00113607 -0.00129396 -0.00129396 -0.00145409 -0.00145409 -0.00161636 -0.00161636 -0.00178064 -0.00178064 -0.00194681 -0.00194681 -0.00211473 -0.00211473 -0.00228429 -0.00228429 -0.00245535 -0.00245535 -0.00262779 -0.00262779 -0.00280147 -0.00280147 -0.00297626 -0.00297626 -0.00315202 -0.00315202 -0.00332863 -0.00332863 -0.00350595 -0.00350595 -0.00368383 -0.00368383 -0.00386216 -0.00386216 -0.00404078 -0.00404078 -0.00421957 -0.00421957 -0.00439839 -0.00439839 -0.00457711 -0.00457711 -0.00475558 -0.00475558 -0.00493368 -0.00493368 -0.00511127 -0.00511127 -0.00528822 -0.00528822 -0.0054644 -0.0054644 -0.00563967 -0.00563967 -0.00581391 -0.00581391 -0.00598698 -0.00598698 -0.00615876 -0.00615876 -0.00632912 -0.00632912 -0.00649794 -0.00649794 -0.0066651 -0.0066651 -0.00683046 -0.00683046 -0.00699392 -0.00699392 -0.00715536 -0.00715536 -0.00731465 -0.00731465 -0.00747169 -0.00747169 -0.00762637 -0.00762637 -0.00777857 -0.00777857 -0.00792819 -0.00792819 -0.00807512 -0.00807512 -0.00821927 -0.00821927 -0.00836052 -0.00836052 -0.0084988 -0.0084988 -0.00863399 -0.00863399 -0.00876602 -0.00876602 -0.00889478 -0.00889478 -0.00902021 -0.00902021 -0.00914221 -0.00914221 -0.0092607 -0.0092607 -0.00937561 -0.00937561 -0.00948686 -0.00948686 -0.00959439 -0.00959439 -0.00969813 -0.00969813 -0.00979801 -0.00979801 -0.00989398 -0.00989398 -0.00998597 -0.00998597 -0.0100739 -0.0100739 -0.0101578 -0.0101578 -0.0102376 -0.0102376 -0.0103132 -0.0103132 -0.0103846 -0.0103846 -0.0104518 -0.0104518 -0.0105147 -0.0105147 -0.0105732 -0.0105732 -0.0106275 -0.0106275 -0.0106774 -0.0106774 -0.010723 -0.010723 -0.0107641 -0.0107641 -0.0108009 -0.0108009 -0.0108333 -0.0108333 -0.0108613 -0.0108613 -0.0108849 -0.0108849 -0.0109041 -0.0109041 -0.0109189 -0.0109189 -0.0109293 -0.0109293 -0.0109354 -0.0109354 -0.0109371 -0.0109371 -0.0109345 -0.0109345 -0.0109276 -0.0109276 -0.0109164 -0.0109164 -0.010901 -0.010901 -0.0108813 -0.0108813 -0.0108575 -0.0108575 -0.0108296 -0.0108296 -0.0107976 -0.0107976 -0.0107615 -0.0107615 -0.0107214 -0.0107214 -0.0106774 -0.0106774 -0.0106295 -0.0106295 -0.0105778 -0.0105778 -0.0105223 -0.0105223 -0.0104631 -0.0104631 -0.0104002 -0.0104002 -0.0103338 -0.0103338 -0.0102638 -0.0102638 -0.0101904 -0.0101904 -0.0101136 -0.0101136 -0.0100335 -0.0100335 -0.00995017 -0.00995017 -0.00986369 -0.00986369 -0.00977414 -0.00977414 -0.00968159 -0.00968159 -0.00958613 -0.00958613 -0.00948783 -0.00948783 -0.00938678 -0.00938678 -0.00928306 -0.00928306 -0.00917676 -0.00917676 -0.00906795 -0.00906795 -0.00895673 -0.00895673 -0.00884317 -0.00884317 -0.00872737 -0.00872737 -0.0086094 -0.0086094 -0.00848936 -0.00848936 -0.00836733 -0.00836733 -0.0082434 -0.0082434 -0.00811764 -0.00811764 -0.00799016 -0.00799016 -0.00786102 -0.00786102 -0.00773031 -0.00773031 -0.00759812 -0.00759812 -0.00746454 -0.00746454 -0.00732963 -0.00732963 -0.00719348 -0.00719348 -0.00705617 -0.00705617 -0.00691778 -0.00691778 -0.00677839 -0.00677839 -0.00663807 -0.00663807 -0.00649689 -0.00649689 -0.00635494 -0.00635494 -0.00621228 -0.00621228 -0.00606897 -0.00606897 -0.0059251 -0.0059251 -0.00578073 -0.00578073 -0.00563591 -0.00563591 -0.00549073 -0.00549073 -0.00534523 -0.00534523 -0.00519947 -0.00519947 -0.00505352 -0.00505352 -0.00490743 -0.00490743 -0.00476125 -0.00476125 -0.00461504 -0.00461504 -0.00446884 -0.00446884 -0.00432271 -0.00432271 -0.00417668 -0.00417668 -0.00403081 -0.00403081 -0.00388512 -0.00388512 -0.00373967 -0.00373967 -0.00359448 -0.00359448 -0.0034496 -0.0034496 -0.00330506 -0.00330506 -0.00316088 -0.00316088 -0.00301709 -0.00301709 -0.00287372 -0.00287372 -0.00273079 -0.00273079 -0.00258833 -0.00258833 -0.00244636 -0.00244636 -0.00230488 -0.00230488 -0.00216392 -0.00216392 -0.00202349 -0.00202349 -0.0018836 -0.0018836 -0.00174426 -0.00174426 -0.00160548 -0.00160548 -0.00146725 -0.00146725 -0.00132959 -0.00132959 -0.00119248 -0.00119248 -0.00105595 -0.00105595 -0.000919966 -0.000919966 -0.000784538 -0.000784538 -0.000649657 -0.000649657 -0.000515312 -0.000515312 -0.000381494 -0.000381494 -0.000248188 -0.000248188 -0.000115382 -0.000115382 1.69415e-05 1.69415e-05 0.0001488 0.0001488 0.000280214 0.000280214 0.000411203 0.000411203 0.000541792 0.000541792 0.000