# vtk DataFile Version 3.0
#This file was generated by the deal.II library on 2020/9/1 at 14:41:48
ASCII
DATASET UNSTRUCTURED_GRID

POINTS 2048 double
1.5 0 0
1.59619 0 0
1.59619 0 0
1.69238 0 0
1.69238 0 0
1.78857 0 0
1.78857 0 0
1.88477 0 0
1.88477 0 0
1.98096 0 0
1.98096 0 0
2.07715 0 0
2.07715 0 0
2.17334 0 0
2.17334 0 0
2.26953 0 0
2.26953 0 0
2.36572 0 0
2.36572 0 0
2.46191 0 0
2.46191 0 0
2.55811 0 0
2.55811 0 0
2.6543 0 0
2.6543 0 0
2.75049 0 0
2.75049 0 0
2.84668 0 0
2.84668 0 0
2.94287 0 0
2.94287 0 0
3.03906 0 0
3.03906 0 0
3.13525 0 0
3.13525 0 0
3.23145 0 0
3.23145 0 0
3.32764 0 0
3.32764 0 0
3.42383 0 0
3.42383 0 0
3.52002 0 0
3.52002 0 0
3.61621 0 0
3.61621 0 0
3.7124 0 0
3.7124 0 0
3.80859 0 0
3.80859 0 0
3.90479 0 0
3.90479 0 0
4.00098 0 0
4.00098 0 0
4.09717 0 0
4.09717 0 0
4.19336 0 0
4.19336 0 0
4.28955 0 0
4.28955 0 0
4.38574 0 0
4.38574 0 0
4.48193 0 0
4.48193 0 0
4.57812 0 0
4.57812 0 0
4.67432 0 0
4.67432 0 0
4.77051 0 0
4.77051 0 0
4.8667 0 0
4.8667 0 0
4.96289 0 0
4.96289 0 0
5.05908 0 0
5.05908 0 0
5.15527 0 0
5.15527 0 0
5.25146 0 0
5.25146 0 0
5.34766 0 0
5.34766 0 0
5.44385 0 0
5.44385 0 0
5.54004 0 0
5.54004 0 0
5.63623 0 0
5.63623 0 0
5.73242 0 0
5.73242 0 0
5.82861 0 0
5.82861 0 0
5.9248 0 0
5.9248 0 0
6.021 0 0
6.021 0 0
6.11719 0 0
6.11719 0 0
6.21338 0 0
6.21338 0 0
6.30957 0 0
6.30957 0 0
6.40576 0 0
6.40576 0 0
6.50195 0 0
6.50195 0 0
6.59814 0 0
6.59814 0 0
6.69434 0 0
6.69434 0 0
6.79053 0 0
6.79053 0 0
6.88672 0 0
6.88672 0 0
6.98291 0 0
6.98291 0 0
7.0791 0 0
7.0791 0 0
7.17529 0 0
7.17529 0 0
7.27148 0 0
7.27148 0 0
7.36768 0 0
7.36768 0 0
7.46387 0 0
7.46387 0 0
7.56006 0 0
7.56006 0 0
7.65625 0 0
7.65625 0 0
7.75244 0 0
7.75244 0 0
7.84863 0 0
7.84863 0 0
7.94482 0 0
7.94482 0 0
8.04102 0 0
8.04102 0 0
8.13721 0 0
8.13721 0 0
8.2334 0 0
8.2334 0 0
8.32959 0 0
8.32959 0 0
8.42578 0 0
8.42578 0 0
8.52197 0 0
8.52197 0 0
8.61816 0 0
8.61816 0 0
8.71436 0 0
8.71436 0 0
8.81055 0 0
8.81055 0 0
8.90674 0 0
8.90674 0 0
9.00293 0 0
9.00293 0 0
9.09912 0 0
9.09912 0 0
9.19531 0 0
9.19531 0 0
9.2915 0 0
9.2915 0 0
9.3877 0 0
9.3877 0 0
9.48389 0 0
9.48389 0 0
9.58008 0 0
9.58008 0 0
9.67627 0 0
9.67627 0 0
9.77246 0 0
9.77246 0 0
9.86865 0 0
9.86865 0 0
9.96484 0 0
9.96484 0 0
10.061 0 0
10.061 0 0
10.1572 0 0
10.1572 0 0
10.2534 0 0
10.2534 0 0
10.3496 0 0
10.3496 0 0
10.4458 0 0
10.4458 0 0
10.542 0 0
10.542 0 0
10.6382 0 0
10.6382 0 0
10.7344 0 0
10.7344 0 0
10.8306 0 0
10.8306 0 0
10.9268 0 0
10.9268 0 0
11.0229 0 0
11.0229 0 0
11.1191 0 0
11.1191 0 0
11.2153 0 0
11.2153 0 0
11.3115 0 0
11.3115 0 0
11.4077 0 0
11.4077 0 0
11.5039 0 0
11.5039 0 0
11.6001 0 0
11.6001 0 0
11.6963 0 0
11.6963 0 0
11.7925 0 0
11.7925 0 0
11.8887 0 0
11.8887 0 0
11.9849 0 0
11.9849 0 0
12.0811 0 0
12.0811 0 0
12.1772 0 0
12.1772 0 0
12.2734 0 0
12.2734 0 0
12.3696 0 0
12.3696 0 0
12.4658 0 0
12.4658 0 0
12.562 0 0
12.562 0 0
12.6582 0 0
12.6582 0 0
12.7544 0 0
12.7544 0 0
12.8506 0 0
12.8506 0 0
12.9468 0 0
12.9468 0 0
13.043 0 0
13.043 0 0
13.1392 0 0
13.1392 0 0
13.2354 0 0
13.2354 0 0
13.3315 0 0
13.3315 0 0
13.4277 0 0
13.4277 0 0
13.5239 0 0
13.5239 0 0
13.6201 0 0
13.6201 0 0
13.7163 0 0
13.7163 0 0
13.8125 0 0
13.8125 0 0
13.9087 0 0
13.9087 0 0
14.0049 0 0
14.0049 0 0
14.1011 0 0
14.1011 0 0
14.1973 0 0
14.1973 0 0
14.2935 0 0
14.2935 0 0
14.3896 0 0
14.3896 0 0
14.4858 0 0
14.4858 0 0
14.582 0 0
14.582 0 0
14.6782 0 0
14.6782 0 0
14.7744 0 0
14.7744 0 0
14.8706 0 0
14.8706 0 0
14.9668 0 0
14.9668 0 0
15.063 0 0
15.063 0 0
15.1592 0 0
15.1592 0 0
15.2554 0 0
15.2554 0 0
15.3516 0 0
15.3516 0 0
15.4478 0 0
15.4478 0 0
15.5439 0 0
15.5439 0 0
15.6401 0 0
15.6401 0 0
15.7363 0 0
15.7363 0 0
15.8325 0 0
15.8325 0 0
15.9287 0 0
15.9287 0 0
16.0249 0 0
16.0249 0 0
16.1211 0 0
16.1211 0 0
16.2173 0 0
16.2173 0 0
16.3135 0 0
16.3135 0 0
16.4097 0 0
16.4097 0 0
16.5059 0 0
16.5059 0 0
16.6021 0 0
16.6021 0 0
16.6982 0 0
16.6982 0 0
16.7944 0 0
16.7944 0 0
16.8906 0 0
16.8906 0 0
16.9868 0 0
16.9868 0 0
17.083 0 0
17.083 0 0
17.1792 0 0
17.1792 0 0
17.2754 0 0
17.2754 0 0
17.3716 0 0
17.3716 0 0
17.4678 0 0
17.4678 0 0
17.564 0 0
17.564 0 0
17.6602 0 0
17.6602 0 0
17.7563 0 0
17.7563 0 0
17.8525 0 0
17.8525 0 0
17.9487 0 0
17.9487 0 0
18.0449 0 0
18.0449 0 0
18.1411 0 0
18.1411 0 0
18.2373 0 0
18.2373 0 0
18.3335 0 0
18.3335 0 0
18.4297 0 0
18.4297 0 0
18.5259 0 0
18.5259 0 0
18.6221 0 0
18.6221 0 0
18.7183 0 0
18.7183 0 0
18.8145 0 0
18.8145 0 0
18.9106 0 0
18.9106 0 0
19.0068 0 0
19.0068 0 0
19.103 0 0
19.103 0 0
19.1992 0 0
19.1992 0 0
19.2954 0 0
19.2954 0 0
19.3916 0 0
19.3916 0 0
19.4878 0 0
19.4878 0 0
19.584 0 0
19.584 0 0
19.6802 0 0
19.6802 0 0
19.7764 0 0
19.7764 0 0
19.8726 0 0
19.8726 0 0
19.9688 0 0
19.9688 0 0
20.0649 0 0
20.0649 0 0
20.1611 0 0
20.1611 0 0
20.2573 0 0
20.2573 0 0
20.3535 0 0
20.3535 0 0
20.4497 0 0
20.4497 0 0
20.5459 0 0
20.5459 0 0
20.6421 0 0
20.6421 0 0
20.7383 0 0
20.7383 0 0
20.8345 0 0
20.8345 0 0
20.9307 0 0
20.9307 0 0
21.0269 0 0
21.0269 0 0
21.123 0 0
21.123 0 0
21.2192 0 0
21.2192 0 0
21.3154 0 0
21.3154 0 0
21.4116 0 0
21.4116 0 0
21.5078 0 0
21.5078 0 0
21.604 0 0
21.604 0 0
21.7002 0 0
21.7002 0 0
21.7964 0 0
21.7964 0 0
21.8926 0 0
21.8926 0 0
21.9888 0 0
21.9888 0 0
22.085 0 0
22.085 0 0
22.1812 0 0
22.1812 0 0
22.2773 0 0
22.2773 0 0
22.3735 0 0
22.3735 0 0
22.4697 0 0
22.4697 0 0
22.5659 0 0
22.5659 0 0
22.6621 0 0
22.6621 0 0
22.7583 0 0
22.7583 0 0
22.8545 0 0
22.8545 0 0
22.9507 0 0
22.9507 0 0
23.0469 0 0
23.0469 0 0
23.1431 0 0
23.1431 0 0
23.2393 0 0
23.2393 0 0
23.3354 0 0
23.3354 0 0
23.4316 0 0
23.4316 0 0
23.5278 0 0
23.5278 0 0
23.624 0 0
23.624 0 0
23.7202 0 0
23.7202 0 0
23.8164 0 0
23.8164 0 0
23.9126 0 0
23.9126 0 0
24.0088 0 0
24.0088 0 0
24.105 0 0
24.105 0 0
24.2012 0 0
24.2012 0 0
24.2974 0 0
24.2974 0 0
24.3936 0 0
24.3936 0 0
24.4897 0 0
24.4897 0 0
24.5859 0 0
24.5859 0 0
24.6821 0 0
24.6821 0 0
24.7783 0 0
24.7783 0 0
24.8745 0 0
24.8745 0 0
24.9707 0 0
24.9707 0 0
25.0669 0 0
25.0669 0 0
25.1631 0 0
25.1631 0 0
25.2593 0 0
25.2593 0 0
25.3555 0 0
25.3555 0 0
25.4517 0 0
25.4517 0 0
25.5479 0 0
25.5479 0 0
25.644 0 0
25.644 0 0
25.7402 0 0
25.7402 0 0
25.8364 0 0
25.8364 0 0
25.9326 0 0
25.9326 0 0
26.0288 0 0
26.0288 0 0
26.125 0 0
26.125 0 0
26.2212 0 0
26.2212 0 0
26.3174 0 0
26.3174 0 0
26.4136 0 0
26.4136 0 0
26.5098 0 0
26.5098 0 0
26.606 0 0
26.606 0 0
26.7021 0 0
26.7021 0 0
26.7983 0 0
26.7983 0 0
26.8945 0 0
26.8945 0 0
26.9907 0 0
26.9907 0 0
27.0869 0 0
27.0869 0 0
27.1831 0 0
27.1831 0 0
27.2793 0 0
27.2793 0 0
27.3755 0 0
27.3755 0 0
27.4717 0 0
27.4717 0 0
27.5679 0 0
27.5679 0 0
27.6641 0 0
27.6641 0 0
27.7603 0 0
27.7603 0 0
27.8564 0 0
27.8564 0 0
27.9526 0 0
27.9526 0 0
28.0488 0 0
28.0488 0 0
28.145 0 0
28.145 0 0
28.2412 0 0
28.2412 0 0
28.3374 0 0
28.3374 0 0
28.4336 0 0
28.4336 0 0
28.5298 0 0
28.5298 0 0
28.626 0 0
28.626 0 0
28.7222 0 0
28.7222 0 0
28.8184 0 0
28.8184 0 0
28.9146 0 0
28.9146 0 0
29.0107 0 0
29.0107 0 0
29.1069 0 0
29.1069 0 0
29.2031 0 0
29.2031 0 0
29.2993 0 0
29.2993 0 0
29.3955 0 0
29.3955 0 0
29.4917 0 0
29.4917 0 0
29.5879 0 0
29.5879 0 0
29.6841 0 0
29.6841 0 0
29.7803 0 0
29.7803 0 0
29.8765 0 0
29.8765 0 0
29.9727 0 0
29.9727 0 0
30.0688 0 0
30.0688 0 0
30.165 0 0
30.165 0 0
30.2612 0 0
30.2612 0 0
30.3574 0 0
30.3574 0 0
30.4536 0 0
30.4536 0 0
30.5498 0 0
30.5498 0 0
30.646 0 0
30.646 0 0
30.7422 0 0
30.7422 0 0
30.8384 0 0
30.8384 0 0
30.9346 0 0
30.9346 0 0
31.0308 0 0
31.0308 0 0
31.127 0 0
31.127 0 0
31.2231 0 0
31.2231 0 0
31.3193 0 0
31.3193 0 0
31.4155 0 0
31.4155 0 0
31.5117 0 0
31.5117 0 0
31.6079 0 0
31.6079 0 0
31.7041 0 0
31.7041 0 0
31.8003 0 0
31.8003 0 0
31.8965 0 0
31.8965 0 0
31.9927 0 0
31.9927 0 0
32.0889 0 0
32.0889 0 0
32.1851 0 0
32.1851 0 0
32.2812 0 0
32.2812 0 0
32.3774 0 0
32.3774 0 0
32.4736 0 0
32.4736 0 0
32.5698 0 0
32.5698 0 0
32.666 0 0
32.666 0 0
32.7622 0 0
32.7622 0 0
32.8584 0 0
32.8584 0 0
32.9546 0 0
32.9546 0 0
33.0508 0 0
33.0508 0 0
33.147 0 0
33.147 0 0
33.2432 0 0
33.2432 0 0
33.3394 0 0
33.3394 0 0
33.4355 0 0
33.4355 0 0
33.5317 0 0
33.5317 0 0
33.6279 0 0
33.6279 0 0
33.7241 0 0
33.7241 0 0
33.8203 0 0
33.8203 0 0
33.9165 0 0
33.9165 0 0
34.0127 0 0
34.0127 0 0
34.1089 0 0
34.1089 0 0
34.2051 0 0
34.2051 0 0
34.3013 0 0
34.3013 0 0
34.3975 0 0
34.3975 0 0
34.4937 0 0
34.4937 0 0
34.5898 0 0
34.5898 0 0
34.686 0 0
34.686 0 0
34.7822 0 0
34.7822 0 0
34.8784 0 0
34.8784 0 0
34.9746 0 0
34.9746 0 0
35.0708 0 0
35.0708 0 0
35.167 0 0
35.167 0 0
35.2632 0 0
35.2632 0 0
35.3594 0 0
35.3594 0 0
35.4556 0 0
35.4556 0 0
35.5518 0 0
35.5518 0 0
35.6479 0 0
35.6479 0 0
35.7441 0 0
35.7441 0 0
35.8403 0 0
35.8403 0 0
35.9365 0 0
35.9365 0 0
36.0327 0 0
36.0327 0 0
36.1289 0 0
36.1289 0 0
36.2251 0 0
36.2251 0 0
36.3213 0 0
36.3213 0 0
36.4175 0 0
36.4175 0 0
36.5137 0 0
36.5137 0 0
36.6099 0 0
36.6099 0 0
36.7061 0 0
36.7061 0 0
36.8022 0 0
36.8022 0 0
36.8984 0 0
36.8984 0 0
36.9946 0 0
36.9946 0 0
37.0908 0 0
37.0908 0 0
37.187 0 0
37.187 0 0
37.2832 0 0
37.2832 0 0
37.3794 0 0
37.3794 0 0
37.4756 0 0
37.4756 0 0
37.5718 0 0
37.5718 0 0
37.668 0 0
37.668 0 0
37.7642 0 0
37.7642 0 0
37.8604 0 0
37.8604 0 0
37.9565 0 0
37.9565 0 0
38.0527 0 0
38.0527 0 0
38.1489 0 0
38.1489 0 0
38.2451 0 0
38.2451 0 0
38.3413 0 0
38.3413 0 0
38.4375 0 0
38.4375 0 0
38.5337 0 0
38.5337 0 0
38.6299 0 0
38.6299 0 0
38.7261 0 0
38.7261 0 0
38.8223 0 0
38.8223 0 0
38.9185 0 0
38.9185 0 0
39.0146 0 0
39.0146 0 0
39.1108 0 0
39.1108 0 0
39.207 0 0
39.207 0 0
39.3032 0 0
39.3032 0 0
39.3994 0 0
39.3994 0 0
39.4956 0 0
39.4956 0 0
39.5918 0 0
39.5918 0 0
39.688 0 0
39.688 0 0
39.7842 0 0
39.7842 0 0
39.8804 0 0
39.8804 0 0
39.9766 0 0
39.9766 0 0
40.0728 0 0
40.0728 0 0
40.1689 0 0
40.1689 0 0
40.2651 0 0
40.2651 0 0
40.3613 0 0
40.3613 0 0
40.4575 0 0
40.4575 0 0
40.5537 0 0
40.5537 0 0
40.6499 0 0
40.6499 0 0
40.7461 0 0
40.7461 0 0
40.8423 0 0
40.8423 0 0
40.9385 0 0
40.9385 0 0
41.0347 0 0
41.0347 0 0
41.1309 0 0
41.1309 0 0
41.2271 0 0
41.2271 0 0
[...]
POINT_DATA 2048
SCALARS solution_0 double 1
LOOKUP_TABLE default
0.0469129 0.0462884 0.0462884 0.0456798 0.0456798 0.0450872 0.0450872 0.0445103 0.0445103 0.0439485 0.0439485 0.043401 0.043401 0.0428669 0.0428669 0.0423455 0.0423455 0.0418361 0.0418361 0.0413377 0.0413377 0.0408499 0.0408499 0.0403719 0.0403719 0.0399032 0.0399032 0.0394432 0.0394432 0.0389915 0.0389915 0.0385476 0.0385476 0.038111 0.038111 0.0376815 0.0376815 0.0372586 0.0372586 0.0368421 0.0368421 0.0364317 0.0364317 0.0360271 0.0360271 0.0356282 0.0356282 0.0352346 0.0352346 0.0348463 0.0348463 0.034463 0.034463 0.0340847 0.0340847 0.0337112 0.0337112 0.0333424 0.0333424 0.0329782 0.0329782 0.0326185 0.0326185 0.0322632 0.0322632 0.0319124 0.0319124 0.031566 0.031566 0.0312239 0.0312239 0.0308861 0.0308861 0.0305526 0.0305526 0.0302234 0.0302234 0.0298985 0.0298985 0.0295779 0.0295779 0.0292616 0.0292616 0.0289497 0.0289497 0.0286421 0.0286421 0.0283389 0.0283389 0.0280402 0.0280402 0.027746 0.027746 0.0274562 0.0274562 0.027171 0.027171 0.0268904 0.0268904 0.0266145 0.0266145 0.0263432 0.0263432 0.0260767 0.0260767 0.0258149 0.0258149 0.025558 0.025558 0.0253059 0.0253059 0.0250587 0.0250587 0.0248165 0.0248165 0.0245792 0.0245792 0.024347 0.024347 0.0241198 0.0241198 0.0238977 0.0238977 0.0236807 0.0236807 0.0234689 0.0234689 0.0232622 0.0232622 0.0230606 0.0230606 0.0228642 0.0228642 0.022673 0.022673 0.022487 0.022487 0.0223062 0.0223062 0.0221306 0.0221306 0.0219601 0.0219601 0.0217947 0.0217947 0.0216345 0.0216345 0.0214794 0.0214794 0.0213293 0.0213293 0.0211843 0.0211843 0.0210443 0.0210443 0.0209092 0.0209092 0.020779 0.020779 0.0206537 0.0206537 0.0205331 0.0205331 0.0204173 0.0204173 0.0203061 0.0203061 0.0201995 0.0201995 0.0200974 0.0200974 0.0199997 0.0199997 0.0199063 0.0199063 0.0198172 0.0198172 0.0197323 0.0197323 0.0196514 0.0196514 0.0195746 0.0195746 0.0195016 0.0195016 0.0194323 0.0194323 0.0193668 0.0193668 0.0193048 0.0193048 0.0192463 0.0192463 0.0191911 0.0191911 0.0191392 0.0191392 0.0190905 0.0190905 0.0190447 0.0190447 0.0190019 0.0190019 0.018962 0.018962 0.0189247 0.0189247 0.01889 0.01889 0.0188579 0.0188579 0.0188281 0.0188281 0.0188006 0.0188006 0.0187753 0.0187753 0.018752 0.018752 0.0187308 0.0187308 0.0187114 0.0187114 0.0186938 0.0186938 0.0186778 0.0186778 0.0186635 0.0186635 0.0186507 0.0186507 0.0186393 0.0186393 0.0186292 0.0186292 0.0186204 0.0186204 0.0186127 0.0186127 0.0186062 0.0186062 0.0186007 0.0186007 0.0185961 0.0185961 0.0185924 0.0185924 0.0185896 0.0185896 0.0185876 0.0185876 0.0185863 0.0185863 0.0185856 0.0185856 0.0185856 0.0185856 0.0185862 0.0185862 0.0185873 0.0185873 0.0185889 0.0185889 0.018591 0.018591 0.0185935 0.0185935 0.0185965 0.0185965 0.0185998 0.0185998 0.0186036 0.0186036 0.0186077 0.0186077 0.0186121 0.0186121 0.0186169 0.0186169 0.018622 0.018622 0.0186274 0.0186274 0.0186331 0.0186331 0.0186392 0.0186392 0.0186456 0.0186456 0.0186523 0.0186523 0.0186594 0.0186594 0.0186668 0.0186668 0.0186746 0.0186746 0.0186828 0.0186828 0.0186914 0.0186914 0.0187004 0.0187004 0.0187098 0.0187098 0.0187197 0.0187197 0.0187301 0.0187301 0.0187409 0.0187409 0.0187523 0.0187523 0.0187643 0.0187643 0.0187768 0.0187768 0.01879 0.01879 0.0188038 0.0188038 0.0188183 0.0188183 0.0188335 0.0188335 0.0188494 0.0188494 0.0188661 0.0188661 0.0188835 0.0188835 0.0189018 0.0189018 0.018921 0.018921 0.0189411 0.0189411 0.0189621 0.0189621 0.018984 0.018984 0.0190069 0.0190069 0.0190309 0.0190309 0.0190559 0.0190559 0.019082 0.019082 0.0191092 0.0191092 0.0191375 0.0191375 0.019167 0.019167 0.0191977 0.0191977 0.0192296 0.0192296 0.0192627 0.0192627 0.0192971 0.0192971 0.0193328 0.0193328 0.0193698 0.0193698 0.0194082 0.0194082 0.0194479 0.0194479 0.0194889 0.0194889 0.0195314 0.0195314 0.0195753 0.0195753 0.0196206 0.0196206 0.0196673 0.0196673 0.0197155 0.0197155 0.0197652 0.0197652 0.0198164 0.0198164 0.019869 0.019869 0.0199231 0.0199231 0.0199787 0.0199787 0.0200358 0.0200358 0.0200944 0.0200944 0.0201545 0.0201545 0.0202161 0.0202161 0.0202792 0.0202792 0.0203439 0.0203439 0.02041 0.02041 0.0204776 0.0204776 0.0205466 0.0205466 0.0206172 0.0206172 0.0206892 0.0206892 0.0207626 0.0207626 0.0208375 0.0208375 0.0209137 0.0209137 0.0209914 0.0209914 0.0210704 0.0210704 0.0211508 0.0211508 0.0212325 0.0212325 0.0213154 0.0213154 0.0213997 0.0213997 0.0214852 0.0214852 0.0215718 0.0215718 0.0216597 0.0216597 0.0217486 0.0217486 0.0218387 0.0218387 0.0219298 0.0219298 0.0220219 0.0220219 0.022115 0.022115 0.022209 0.022209 0.0223039 0.0223039 0.0223996 0.0223996 0.022496 0.022496 0.0225932 0.0225932 0.022691 0.022691 0.0227894 0.0227894 0.0228884 0.0228884 0.0229878 0.0229878 0.0230876 0.0230876 0.0231877 0.0231877 0.0232881 0.0232881 0.0233887 0.0233887 0.0234894 0.0234894 0.0235902 0.0235902 0.0236909 0.0236909 0.0237915 0.0237915 0.0238919 0.0238919 0.023992 0.023992 0.0240917 0.0240917 0.024191 0.024191 0.0242897 0.0242897 0.0243878 0.0243878 0.0244851 0.0244851 0.0245816 0.0245816 0.0246771 0.0246771 0.0247716 0.0247716 0.024865 0.024865 0.0249571 0.0249571 0.0250479 0.0250479 0.0251372 0.0251372 0.0252249 0.0252249 0.0253109 0.0253109 0.0253951 0.0253951 0.0254774 0.0254774 0.0255577 0.0255577 0.0256359 0.0256359 0.0257117 0.0257117 0.0257852 0.0257852 0.0258562 0.0258562 0.0259245 0.0259245 0.02599 0.02599 0.0260527 0.0260527 0.0261124 0.0261124 0.0261689 0.0261689 0.0262222 0.0262222 0.026272 0.026272 0.0263184 0.0263184 0.0263611 0.0263611 0.0264 0.0264 0.026435 0.026435 0.026466 0.026466 0.0264928 0.0264928 0.0265152 0.0265152 0.0265333 0.0265333 0.0265468 0.0265468 0.0265556 0.0265556 0.0265596 0.0265596 0.0265586 0.0265586 0.0265526 0.0265526 0.0265414 0.0265414 0.0265249 0.0265249 0.0265029 0.0265029 0.0264754 0.0264754 0.0264422 0.0264422 0.0264032 0.0264032 0.0263583 0.0263583 0.0263074 0.0263074 0.0262503 0.0262503 0.026187 0.026187 0.0261173 0.0261173 0.0260412 0.0260412 0.0259586 0.0259586 0.0258693 0.0258693 0.0257733 0.0257733 0.0256705 0.0256705 0.0255607 0.0255607 0.025444 0.025444 0.0253202 0.0253202 0.0251893 0.0251893 0.0250512 0.0250512 0.0249059 0.0249059 0.0247532 0.0247532 0.0245932 0.0245932 0.0244257 0.0244257 0.0242509 0.0242509 0.0240685 0.0240685 0.0238787 0.0238787 0.0236813 0.0236813 0.0234764 0.0234764 0.023264 0.023264 0.023044 0.023044 0.0228165 0.0228165 0.0225815 0.0225815 0.0223391 0.0223391 0.0220892 0.0220892 0.0218319 0.0218319 0.0215673 0.0215673 0.0212954 0.0212954 0.0210163 0.0210163 0.02073 0.02073 0.0204368 0.0204368 0.0201366 0.0201366 0.0198297 0.0198297 0.019516 0.019516 0.0191959 0.0191959 0.0188693 0.0188693 0.0185365 0.0185365 0.0181977 0.0181977 0.0178531 0.0178531 0.0175027 0.0175027 0.017147 0.017147 0.016786 0.016786 0.0164201 0.0164201 0.0160495 0.0160495 0.0156744 0.0156744 0.0152952 0.0152952 0.0149122 0.0149122 0.0145257 0.0145257 0.014136 0.014136 0.0137435 0.0137435 0.0133486 0.0133486 0.0129517 0.0129517 0.0125531 0.0125531 0.0121533 0.0121533 0.0117527 0.0117527 0.0113519 0.0113519 0.0109513 0.0109513 0.0105514 0.0105514 0.0101527 0.0101527 0.00975581 0.00975581 0.00936128 0.00936128 0.00896971 0.00896971 0.0085817 0.0085817 0.0081979 0.0081979 0.00781896 0.00781896 0.00744557 0.00744557 0.00707844 0.00707844 0.00671828 0.00671828 0.00636587 0.00636587 0.00602198 0.00602198 0.0056874 0.0056874 0.00536298 0.00536298 0.00504957 0.00504957 0.00474804 0.00474804 0.00445931 0.00445931 0.00418429 0.00418429 0.00392397 0.00392397 0.0036793 0.0036793 0.00345132 0.00345132 0.00324105 0.00324105 0.00304957 0.00304957 0.00287795 0.00287795 0.00272733 0.00272733 0.00259884 0.00259884 0.00249366 0.00249366 0.00241299 0.00241299 0.00235804 0.00235804 0.00233009 0.00233009 0.00233039 0.00233039 0.00236026 0.00236026 0.00242102 0.00242102 0.00251403 0.00251403 0.00264068 0.00264068 0.00280236 0.00280236 0.0030005 0.0030005 0.00323657 0.00323657 0.00351203 0.00351203 0.00382837 0.00382837 0.00418713 0.00418713 0.00458984 0.00458984 0.00503806 0.00503806 0.00553337 0.00553337 0.00607737 0.00607737 0.00667167 0.00667167 0.0073179 0.0073179 0.0080177 0.0080177 0.00877274 0.00877274 0.00958469 0.00958469 0.0104552 0.0104552 0.011386 0.011386 0.0123788 0.0123788 0.0134352 0.0134352 0.014557 0.014557 0.015746 0.015746 0.0170037 0.0170037 0.0183319 0.0183319 0.0197323 0.0197323 0.0212066 0.0212066 0.0227565 0.0227565 0.0243836 0.0243836 0.0260897 0.0260897 0.0278764 0.0278764 0.0297453 0.0297453 0.031698 0.031698 0.0337361 0.0337361 0.0358611 0.0358611 0.0380747 0.0380747 0.0403782 0.0403782 0.0427732 0.0427732 0.045261 0.045261 0.0478431 0.0478431 0.0505208 0.0505208 0.0532953 0.0532953 0.056168 0.056168 0.0591399 0.0591399 0.0622122 0.0622122 0.0653859 0.0653859 0.0686621 0.0686621 0.0720417 0.0720417 0.0755254 0.0755254 0.0791142 0.0791142 0.0828086 0.0828086 0.0866092 0.0866092 0.0905167 0.0905167 0.0945313 0.0945313 0.0986535 0.0986535 0.102883 0.102883 0.107221 0.107221 0.111667 0.111667 0.11622 0.11622 0.120881 0.120881 0.12565 0.12565 0.130525 0.130525 0.135506 0.135506 0.140593 0.140593 0.145785 0.145785 0.15108 0.15108 0.156478 0.156478 0.161977 0.161977 0.167576 0.167576 0.173273 0.173273 0.179067 0.179067 0.184956 0.184956 0.190938 0.190938 0.19701 0.19701 0.203171 0.203171 0.209418 0.209418 0.215747 0.215747 0.222157 0.222157 0.228645 0.228645 0.235206 0.235206 0.241839 0.241839 0.248539 0.248539 0.255302 0.255302 0.262126 0.262126 0.269005 0.269005 0.275936 0.275936 0.282914 0.282914 0.289935 0.289935 0.296995 0.296995 0.304087 0.304087 0.311208 0.311208 0.318351 0.318351 0.325512 0.325512 0.332686 0.332686 0.339865 0.339865 0.347046 0.347046 0.354221 0.354221 0.361384 0.361384 0.368529 0.368529 0.375651 0.375651 0.382741 0.382741 0.389794 0.389794 0.396803 0.396803 0.403761 0.403761 0.41066 0.41066 0.417494 0.417494 0.424255 0.424255 0.430936 0.430936 0.437529 0.437529 0.444027 0.444027 0.450423 0.450423 0.456708 0.456708 0.462875 0.462875 0.468916 0.468916 0.474824 0.474824 0.48059 0.48059 0.486206 0.486206 0.491665 0.491665 0.496959 0.496959 0.502079 0.502079 0.507019 0.507019 0.511769 0.511769 0.516323 0.516323 0.520671 0.520671 0.524808 0.524808 0.528724 0.528724 0.532413 0.532413 0.535866 0.535866 0.539077 0.539077 0.542038 0.542038 0.544742 0.544742 0.547181 0.547181 0.549349 0.549349 0.55124 0.55124 0.552845 0.552845 0.55416 0.55416 0.555177 0.555177 0.555891 0.555891 0.556296 0.556296 0.556385 0.556385 0.556154 0.556154 0.555598 0.555598 0.554711 0.554711 0.553488 0.553488 0.551926 0.551926 0.550021 0.550021 0.547767 0.547767 0.545162 0.545162 0.542202 0.542202 0.538884 0.538884 0.535206 0.535206 0.531165 0.531165 0.52676 0.52676 0.521987 0.521987 0.516847 0.516847 0.511338 0.511338 0.50546 0.50546 0.499211 0.499211 0.492593 0.492593 0.485605 0.485605 0.478248 0.478248 0.470524 0.470524 0.462434 0.462434 0.45398 0.45398 0.445164 0.445164 0.435988 0.435988 0.426457 0.426457 0.416573 0.416573 0.40634 0.40634 0.395762 0.395762 0.384843 0.384843 0.37359 0.37359 0.362006 0.362006 0.350098 0.350098 0.337872 0.337872 0.325333 0.325333 0.312489 0.312489 0.299347 0.299347 0.285914 0.285914 0.272198 0.272198 0.258206 0.258206 0.243948 0.243948 0.229433 0.229433 0.214668 0.214668 0.199663 0.199663 0.184429 0.184429 0.168974 0.168974 0.153309 0.153309 0.137445 0.137445 0.121391 0.121391 0.10516 0.10516 0.0887606 0.0887606 0.0722058 0.0722058 0.0555067 0.0555067 0.0386748 0.0386748 0.021722 0.021722 0.00466024 0.00466024 -0.0124983 -0.0124983 -0.0297414 -0.0297414 -0.0470566 -0.0470566 -0.0644317 -0.0644317 -0.0818538 -0.0818538 -0.0993106 -0.0993106 -0.116789 -0.116789 -0.134277 -0.134277 -0.151761 -0.151761 -0.169229 -0.169229 -0.186668 -0.186668 -0.204066 -0.204066 -0.221409 -0.221409 -0.238684 -0.238684 -0.25588 -0.25588 -0.272984 -0.272984 -0.289984 -0.289984 -0.306866 -0.306866 -0.32362 -0.32362 -0.340232 -0.340232 -0.356692 -0.356692 -0.372987 -0.372987 -0.389106 -0.389106 -0.405037 -0.405037 -0.42077 -0.42077 -0.436293 -0.436293 -0.451596 -0.451596 -0.466667 -0.466667 -0.481498 -0.481498 -0.496078 -0.496078 -0.510397 -0.510397 -0.524447 -0.524447 -0.538217 -0.538217 -0.551699 -0.551699 -0.564884 -0.564884 -0.577765 -0.577765 -0.590333 -0.590333 -0.602582 -0.602582 -0.614503 -0.614503 -0.62609 -0.62609 -0.637336 -0.637336 -0.648236 -0.648236 -0.658783 -0.658783 -0.668972 -0.668972 -0.678799 -0.678799 -0.688258 -0.688258 -0.697345 -0.697345 -0.706056 -0.706056 -0.714389 -0.714389 -0.722338 -0.722338 -0.729903 -0.729903 -0.73708 -0.73708 -0.743868 -0.743868 -0.750264 -0.750264 -0.756268 -0.756268 -0.761879 -0.761879 -0.767096 -0.767096 -0.771919 -0.771919 -0.776348 -0.776348 -0.780385 -0.780385 -0.784029 -0.784029 -0.787283 -0.787283 -0.790148 -0.790148 -0.792625 -0.792625 -0.794718 -0.794718 -0.796429 -0.796429 -0.797761 -0.797761 -0.798717 -0.798717 -0.799301 -0.799301 -0.799517 -0.799517 -0.799369 -0.799369 -0.798862 -0.798862 -0.797999 -0.797999 -0.796788 -0.796788 -0.795231 -0.795231 -0.793337 -0.793337 -0.791109 -0.791109 -0.788554 -0.788554 -0.785678 -0.785678 -0.782488 -0.782488 -0.77899 -0.77899 -0.775192 -0.775192 -0.771099 -0.771099 -0.76672 -0.76672 -0.762061 -0.762061 -0.75713 -0.75713 -0.751935 -0.751935 -0.746483 -0.746483 -0.740782 -0.740782 -0.734841 -0.734841 -0.728666 -0.728666 -0.722267 -0.722267 -0.715651 -0.715651 -0.708826 -0.708826 -0.701802 -0.701802 -0.694585 -0.694585 -0.687185 -0.687185 -0.67961 -0.67961 -0.671868 -0.671868 -0.663967 -0.663967 -0.655916 -0.655916 -0.647724 -0.647724 -0.639398 -0.639398 -0.630947 -0.630947 -0.622378 -0.622378 -0.613701 -0.613701 -0.604924 -0.604924 -0.596053 -0.596053 -0.587098 -0.587098 -0.578066 -0.578066 -0.568964 -0.568964 -0.559801 -0.559801 -0.550585 -0.550585 -0.541322 -0.541322 -0.532019 -0.532019 -0.522685 -0.522685 -0.513326 -0.513326 -0.503949 -0.503949 -0.494561 -0.494561 -0.485169 -0.485169 -0.475779 -0.475779 -0.466397 -0.466397 -0.45703 -0.45703 -0.447683 -0.447683 -0.438364 -0.438364 -0.429076 -0.429076 -0.419827 -0.419827 -0.41062 -0.41062 -0.401462 -0.401462 -0.392358 -0.392358 -0.383312 -0.383312 -0.37433 -0.37433 -0.365414 -0.365414 -0.356571 -0.356571 -0.347804 -0.347804 -0.339117 -0.339117 -0.330514 -0.330514 -0.321998 -0.321998 -0.313574 -0.313574 -0.305243 -0.305243 -0.297011 -0.297011 -0.288878 -0.288878 -0.280848 -0.280848 -0.272925 -0.272925 -0.265109 -0.265109 -0.257403 -0.257403 -0.24981 -0.24981 -0.242332 -0.242332 -0.234969 -0.234969 -0.227725 -0.227725 -0.220599 -0.220599 -0.213595 -0.213595 -0.206712 -0.206712 -0.199951 -0.199951 -0.193314 -0.193314 -0.186802 -0.186802 -0.180415 -0.180415 -0.174153 -0.174153 -0.168017 -0.168017 -0.162007 -0.162007 -0.156123 -0.156123 -0.150365 -0.150365 -0.144733 -0.144733 -0.139227 -0.139227 -0.133847 -0.133847 -0.128591 -0.128591 -0.12346 -0.12346 -0.118452 -0.118452 -0.113568 -0.113568 -0.108806 -0.108806 -0.104165 -0.104165 -0.0996448 -0.0996448 -0.0952436 -0.0952436 -0.0909607 -0.0909607 -0.0867948 -0.0867948 -0.0827446 -0.0827446 -0.0788088 -0.0788088 -0.074986 -0.074986 -0.0712749 -0.0712749 -0.0676739 -0.0676739 -0.0641814 -0.0641814 -0.060796 -0.060796 -0.057516 -0.057516 -0.0543398 -0.0543398 -0.0512657 -0.0512657 -0.0482919 -0.0482919 -0.0454167 -0.0454167 -0.0426385 -0.0426385 -0.0399553 -0.0399553 -0.0373653 -0.0373653 -0.0348668 -0.0348668 -0.032458 -0.032458 -0.0301369 -0.0301369 -0.0279017 -0.0279017 -0.0257505 -0.0257505 -0.0236815 -0.0236815 -0.0216929 -0.0216929 -0.0197827 -0.0197827 -0.017949 -0.017949 -0.0161901 -0.0161901 -0.0145041 -0.0145041 -0.0128891 -0.0128891 -0.0113433 -0.0113433 -0.00986482 -0.00986482 -0.00845192 -0.00845192 -0.00710279 -0.00710279 -0.00581563 -0.00581563 -0.00458869 -0.00458869 -0.00342023 -0.00342023 -0.00230852 -0.00230852 -0.00125186 -0.00125186 -0.000248571 -0.000248571 0.000703004 0.000703004 0.0016045 0.0016045 0.00245752 0.00245752 0.00326366 0.00326366 0.00402446 0.00402446 0.00474147 0.00474147 0.00541617 0.00541617 0.00605005 0.00605005 0.00664456 0.00664456 0.0072011 0.0072011 0.00772108 0.00772108 0.00820585 0.00820585 0.00865674 0.00865674 0.00907505 0.00907505 0.00946205 0.00946205 0.00981899 0.00981899 0.0101471 0.0101471 0.0104475 0.0104475 0.0107214 0.0107214 0.0109698 0.0109698 0.011194 0.011194 0.0113949 0.0113949 0.0115736 0.0115736 0.0117311 0.0117311 0.0118684 0.0118684 0.0119864 0.0119864 0.0120859 0.0120859 0.0121681 0.0121681 0.0122335 0.0122335 0.0122832 0.0122832 0.012318 0.012318 0.0123385 0.0123385 0.0123456 0.0123456 0.0123399 0.0123399 0.0123223 0.0123223 0.0122933 0.0122933 0.0122536 0.0122536 0.0122039 0.0122039 0.0121448 0.0121448 0.0120768 0.0120768 0.0120005 0.0120005 0.0119164 0.0119164 0.0118252 0.0118252 0.0117271 0.0117271 0.0116229 0.0116229 0.0115128 0.0115128 0.0113973 0.0113973 0.0112769 0.0112769 0.011152 0.011152 0.0110229 0.0110229 0.01089 0.01089 0.0107537 0.0107537 0.0106142 0.0106142 0.010472 0.010472 0.0103272 0.0103272 0.0101803 0.0101803 0.0100314 0.0100314 0.0098808 0.0098808 0.00972879 0.00972879 0.00957557 0.00957557 0.00942138 0.00942138 0.0092664 0.0092664 0.00911085 0.00911085 0.00895489 0.00895489 0.00879872 0.00879872 0.00864248 0.00864248 0.00848634 0.00848634 0.00833043 0.00833043 0.0081749 0.0081749 0.00801986 0.00801986 0.00786544 0.00786544 0.00771174 0.00771174 0.00755886 0.00755886 0.0074069 0.0074069 0.00725595 0.00725595 0.00710609 0.00710609 0.00695738 0.00695738 0.0068099 0.0068099 0.0066637 0.0066637 0.00651885 0.00651885 0.0063754 0.0063754 0.00623339 0.00623339 0.00609286 0.00609286 0.00595384 0.00595384 0.00581638 0.00581638 0.0056805 0.0056805 0.00554622 0.00554622 0.00541357 0.00541357 0.00528255 0.00528255 0.00515319 0.00515319 0.0050255 0.0050255 0.00489948 0.00489948 0.00477515 0.00477515 0.00465249 0.00465249 0.00453153 0.00453153 0.00441224 0.00441224 0.00429464 0.00429464 0.00417871 0.00417871 0.00406444 0.00406444 0.00395184 0.00395184 0.00384089 0.00384089 0.00373157 0.00373157 0.00362388 0.00362388 0.0035178 0.0035178 0.00341331 0.00341331 0.00331041 0.00331041 0.00320907 0.00320907 0.00310928 0.00310928 0.00301101 0.00301101 0.00291426 0.00291426 0.00281899 0.00281899 0.0027252 0.0027252 0.00263285 0.00263285 0.00254193 0.00254193 0.00245243 0.00245243 0.00236431 0.00236431 0.00227755 0.00227755 0.00219214 0.00219214 0.00210806 0.00210806 0.00202527 0.00202527 0.00194377 0.00194377 0.00186353 0.00186353 0.00178452 0.00178452 0.00170672 0.00170672 0.00163012 0.00163012 0.0015547 0.0015547 0.00148042 0.00148042 0.00140728 0.00140728 0.00133525 0.00133525 0.0012643 0.0012643 0.00119443 0.00119443 0.0011256 0.0011256 0.00105781 0.00105781 0.000991022 0.000991022 0.000925228 0.000925228 0.000860406 0.000860406 0.000796537 0.000796537 0.000733604 0.000733604 0.000671588 0.000671588 0.000610472 0.000610472 0.000550238 0.000550238 0.000490868 0.000490868 0.000432347 0.000432347 0.000374658 0.000374658 0.000317785 0.000317785 0.000261712 0.000261712 0.000206423 0.000206423 0.000151903 0.000151903 9.81386e-05 9.81386e-05 4.51137e-05 4.51137e-05 -7.18553e-06 -7.18553e-06 -5.87729e-05 -5.87729e-05 -0.000109662 -0.000109662 -0.000159866 -0.000159866 -0.000209399 -0.000209399 -0.000258272 -0.000258272 -0.000306499 -0.000306499 -0.000354092 -0.000354092 -0.000401062 -0.000401062 -0.000447421 -0.000447421 -0.000493181 -0.000493181 -0.000538353 -0.000538353 -0.000582947 -0.000582947 -0.000626975 -0.000626975 -0.000670447 -0.000670447 -0.000713372 -0.000713372 -0.000755761 -0.000755761 -0.000797624 -0.000797624 -0.00083897 -0.00083897 -0.000879809 -0.000879809 -0.000920149 -0.000920149 -0.00096 -0.00096 -0.000999369 -0.000999369 -0.00103827 -0.00103827 -0.0010767 -0.0010767 -0.00111468 -0.00111468 -0.00115221 -0.00115221 -0.0011893 -0.0011893 -0.00122595 -0.00122595 -0.00126218 -0.00126218 -0.001298 -0.001298 -0.0013334 -0.0013334 -0.0013684 -0.0013684 -0.001403 -0.001403 -0.00143721 -0.00143721 -0.00147103 -0.00147103 -0.00150448 -0.00150448 -0.00153756 -0.00153756 -0.00157027 -0.00157027 -0.00160261 -0.00160261 -0.00163461 -0.00163461 -0.00166625 -0.00166625 -0.00169755 -0.00169755 -0.00172852 -0.00