# vtk DataFile Version 3.0
#This file was generated by the deal.II library on 2020/9/1 at 14:41:32
ASCII
DATASET UNSTRUCTURED_GRID

POINTS 2048 double
1.5 0 0
1.59619 0 0
1.59619 0 0
1.69238 0 0
1.69238 0 0
1.78857 0 0
1.78857 0 0
1.88477 0 0
1.88477 0 0
1.98096 0 0
1.98096 0 0
2.07715 0 0
2.07715 0 0
2.17334 0 0
2.17334 0 0
2.26953 0 0
2.26953 0 0
2.36572 0 0
2.36572 0 0
2.46191 0 0
2.46191 0 0
2.55811 0 0
2.55811 0 0
2.6543 0 0
2.6543 0 0
2.75049 0 0
2.75049 0 0
2.84668 0 0
2.84668 0 0
2.94287 0 0
2.94287 0 0
3.03906 0 0
3.03906 0 0
3.13525 0 0
3.13525 0 0
3.23145 0 0
3.23145 0 0
3.32764 0 0
3.32764 0 0
3.42383 0 0
3.42383 0 0
3.52002 0 0
3.52002 0 0
3.61621 0 0
3.61621 0 0
3.7124 0 0
3.7124 0 0
3.80859 0 0
3.80859 0 0
3.90479 0 0
3.90479 0 0
4.00098 0 0
4.00098 0 0
4.09717 0 0
4.09717 0 0
4.19336 0 0
4.19336 0 0
4.28955 0 0
4.28955 0 0
4.38574 0 0
4.38574 0 0
4.48193 0 0
4.48193 0 0
4.57812 0 0
4.57812 0 0
4.67432 0 0
4.67432 0 0
4.77051 0 0
4.77051 0 0
4.8667 0 0
4.8667 0 0
4.96289 0 0
4.96289 0 0
5.05908 0 0
5.05908 0 0
5.15527 0 0
5.15527 0 0
5.25146 0 0
5.25146 0 0
5.34766 0 0
5.34766 0 0
5.44385 0 0
5.44385 0 0
5.54004 0 0
5.54004 0 0
5.63623 0 0
5.63623 0 0
5.73242 0 0
5.73242 0 0
5.82861 0 0
5.82861 0 0
5.9248 0 0
5.9248 0 0
6.021 0 0
6.021 0 0
6.11719 0 0
6.11719 0 0
6.21338 0 0
6.21338 0 0
6.30957 0 0
6.30957 0 0
6.40576 0 0
6.40576 0 0
6.50195 0 0
6.50195 0 0
6.59814 0 0
6.59814 0 0
6.69434 0 0
6.69434 0 0
6.79053 0 0
6.79053 0 0
6.88672 0 0
6.88672 0 0
6.98291 0 0
6.98291 0 0
7.0791 0 0
7.0791 0 0
7.17529 0 0
7.17529 0 0
7.27148 0 0
7.27148 0 0
7.36768 0 0
7.36768 0 0
7.46387 0 0
7.46387 0 0
7.56006 0 0
7.56006 0 0
7.65625 0 0
7.65625 0 0
7.75244 0 0
7.75244 0 0
7.84863 0 0
7.84863 0 0
7.94482 0 0
7.94482 0 0
8.04102 0 0
8.04102 0 0
8.13721 0 0
8.13721 0 0
8.2334 0 0
8.2334 0 0
8.32959 0 0
8.32959 0 0
8.42578 0 0
8.42578 0 0
8.52197 0 0
8.52197 0 0
8.61816 0 0
8.61816 0 0
8.71436 0 0
8.71436 0 0
8.81055 0 0
8.81055 0 0
8.90674 0 0
8.90674 0 0
9.00293 0 0
9.00293 0 0
9.09912 0 0
9.09912 0 0
9.19531 0 0
9.19531 0 0
9.2915 0 0
9.2915 0 0
9.3877 0 0
9.3877 0 0
9.48389 0 0
9.48389 0 0
9.58008 0 0
9.58008 0 0
9.67627 0 0
9.67627 0 0
9.77246 0 0
9.77246 0 0
9.86865 0 0
9.86865 0 0
9.96484 0 0
9.96484 0 0
10.061 0 0
10.061 0 0
10.1572 0 0
10.1572 0 0
10.2534 0 0
10.2534 0 0
10.3496 0 0
10.3496 0 0
10.4458 0 0
10.4458 0 0
10.542 0 0
10.542 0 0
10.6382 0 0
10.6382 0 0
10.7344 0 0
10.7344 0 0
10.8306 0 0
10.8306 0 0
10.9268 0 0
10.9268 0 0
11.0229 0 0
11.0229 0 0
11.1191 0 0
11.1191 0 0
11.2153 0 0
11.2153 0 0
11.3115 0 0
11.3115 0 0
11.4077 0 0
11.4077 0 0
11.5039 0 0
11.5039 0 0
11.6001 0 0
11.6001 0 0
11.6963 0 0
11.6963 0 0
11.7925 0 0
11.7925 0 0
11.8887 0 0
11.8887 0 0
11.9849 0 0
11.9849 0 0
12.0811 0 0
12.0811 0 0
12.1772 0 0
12.1772 0 0
12.2734 0 0
12.2734 0 0
12.3696 0 0
12.3696 0 0
12.4658 0 0
12.4658 0 0
12.562 0 0
12.562 0 0
12.6582 0 0
12.6582 0 0
12.7544 0 0
12.7544 0 0
12.8506 0 0
12.8506 0 0
12.9468 0 0
12.9468 0 0
13.043 0 0
13.043 0 0
13.1392 0 0
13.1392 0 0
13.2354 0 0
13.2354 0 0
13.3315 0 0
13.3315 0 0
13.4277 0 0
13.4277 0 0
13.5239 0 0
13.5239 0 0
13.6201 0 0
13.6201 0 0
13.7163 0 0
13.7163 0 0
13.8125 0 0
13.8125 0 0
13.9087 0 0
13.9087 0 0
14.0049 0 0
14.0049 0 0
14.1011 0 0
14.1011 0 0
14.1973 0 0
14.1973 0 0
14.2935 0 0
14.2935 0 0
14.3896 0 0
14.3896 0 0
14.4858 0 0
14.4858 0 0
14.582 0 0
14.582 0 0
14.6782 0 0
14.6782 0 0
14.7744 0 0
14.7744 0 0
14.8706 0 0
14.8706 0 0
14.9668 0 0
14.9668 0 0
15.063 0 0
15.063 0 0
15.1592 0 0
15.1592 0 0
15.2554 0 0
15.2554 0 0
15.3516 0 0
15.3516 0 0
15.4478 0 0
15.4478 0 0
15.5439 0 0
15.5439 0 0
15.6401 0 0
15.6401 0 0
15.7363 0 0
15.7363 0 0
15.8325 0 0
15.8325 0 0
15.9287 0 0
15.9287 0 0
16.0249 0 0
16.0249 0 0
16.1211 0 0
16.1211 0 0
16.2173 0 0
16.2173 0 0
16.3135 0 0
16.3135 0 0
16.4097 0 0
16.4097 0 0
16.5059 0 0
16.5059 0 0
16.6021 0 0
16.6021 0 0
16.6982 0 0
16.6982 0 0
16.7944 0 0
16.7944 0 0
16.8906 0 0
16.8906 0 0
16.9868 0 0
16.9868 0 0
17.083 0 0
17.083 0 0
17.1792 0 0
17.1792 0 0
17.2754 0 0
17.2754 0 0
17.3716 0 0
17.3716 0 0
17.4678 0 0
17.4678 0 0
17.564 0 0
17.564 0 0
17.6602 0 0
17.6602 0 0
17.7563 0 0
17.7563 0 0
17.8525 0 0
17.8525 0 0
17.9487 0 0
17.9487 0 0
18.0449 0 0
18.0449 0 0
18.1411 0 0
18.1411 0 0
18.2373 0 0
18.2373 0 0
18.3335 0 0
18.3335 0 0
18.4297 0 0
18.4297 0 0
18.5259 0 0
18.5259 0 0
18.6221 0 0
18.6221 0 0
18.7183 0 0
18.7183 0 0
18.8145 0 0
18.8145 0 0
18.9106 0 0
18.9106 0 0
19.0068 0 0
19.0068 0 0
19.103 0 0
19.103 0 0
19.1992 0 0
19.1992 0 0
19.2954 0 0
19.2954 0 0
19.3916 0 0
19.3916 0 0
19.4878 0 0
19.4878 0 0
19.584 0 0
19.584 0 0
19.6802 0 0
19.6802 0 0
19.7764 0 0
19.7764 0 0
19.8726 0 0
19.8726 0 0
19.9688 0 0
19.9688 0 0
20.0649 0 0
20.0649 0 0
20.1611 0 0
20.1611 0 0
20.2573 0 0
20.2573 0 0
20.3535 0 0
20.3535 0 0
20.4497 0 0
20.4497 0 0
20.5459 0 0
20.5459 0 0
20.6421 0 0
20.6421 0 0
20.7383 0 0
20.7383 0 0
20.8345 0 0
20.8345 0 0
20.9307 0 0
20.9307 0 0
21.0269 0 0
21.0269 0 0
21.123 0 0
21.123 0 0
21.2192 0 0
21.2192 0 0
21.3154 0 0
21.3154 0 0
21.4116 0 0
21.4116 0 0
21.5078 0 0
21.5078 0 0
21.604 0 0
21.604 0 0
21.7002 0 0
21.7002 0 0
21.7964 0 0
21.7964 0 0
21.8926 0 0
21.8926 0 0
21.9888 0 0
21.9888 0 0
22.085 0 0
22.085 0 0
22.1812 0 0
22.1812 0 0
22.2773 0 0
22.2773 0 0
22.3735 0 0
22.3735 0 0
22.4697 0 0
22.4697 0 0
22.5659 0 0
22.5659 0 0
22.6621 0 0
22.6621 0 0
22.7583 0 0
22.7583 0 0
22.8545 0 0
22.8545 0 0
22.9507 0 0
22.9507 0 0
23.0469 0 0
23.0469 0 0
23.1431 0 0
23.1431 0 0
23.2393 0 0
23.2393 0 0
23.3354 0 0
23.3354 0 0
23.4316 0 0
23.4316 0 0
23.5278 0 0
23.5278 0 0
23.624 0 0
23.624 0 0
23.7202 0 0
23.7202 0 0
23.8164 0 0
23.8164 0 0
23.9126 0 0
23.9126 0 0
24.0088 0 0
24.0088 0 0
24.105 0 0
24.105 0 0
24.2012 0 0
24.2012 0 0
24.2974 0 0
24.2974 0 0
24.3936 0 0
24.3936 0 0
24.4897 0 0
24.4897 0 0
24.5859 0 0
24.5859 0 0
24.6821 0 0
24.6821 0 0
24.7783 0 0
24.7783 0 0
24.8745 0 0
24.8745 0 0
24.9707 0 0
24.9707 0 0
25.0669 0 0
25.0669 0 0
25.1631 0 0
25.1631 0 0
25.2593 0 0
25.2593 0 0
25.3555 0 0
25.3555 0 0
25.4517 0 0
25.4517 0 0
25.5479 0 0
25.5479 0 0
25.644 0 0
25.644 0 0
25.7402 0 0
25.7402 0 0
25.8364 0 0
25.8364 0 0
25.9326 0 0
25.9326 0 0
26.0288 0 0
26.0288 0 0
26.125 0 0
26.125 0 0
26.2212 0 0
26.2212 0 0
26.3174 0 0
26.3174 0 0
26.4136 0 0
26.4136 0 0
26.5098 0 0
26.5098 0 0
26.606 0 0
26.606 0 0
26.7021 0 0
26.7021 0 0
26.7983 0 0
26.7983 0 0
26.8945 0 0
26.8945 0 0
26.9907 0 0
26.9907 0 0
27.0869 0 0
27.0869 0 0
27.1831 0 0
27.1831 0 0
27.2793 0 0
27.2793 0 0
27.3755 0 0
27.3755 0 0
27.4717 0 0
27.4717 0 0
27.5679 0 0
27.5679 0 0
27.6641 0 0
27.6641 0 0
27.7603 0 0
27.7603 0 0
27.8564 0 0
27.8564 0 0
27.9526 0 0
27.9526 0 0
28.0488 0 0
28.0488 0 0
28.145 0 0
28.145 0 0
28.2412 0 0
28.2412 0 0
28.3374 0 0
28.3374 0 0
28.4336 0 0
28.4336 0 0
28.5298 0 0
28.5298 0 0
28.626 0 0
28.626 0 0
28.7222 0 0
28.7222 0 0
28.8184 0 0
28.8184 0 0
28.9146 0 0
28.9146 0 0
29.0107 0 0
29.0107 0 0
29.1069 0 0
29.1069 0 0
29.2031 0 0
29.2031 0 0
29.2993 0 0
29.2993 0 0
29.3955 0 0
29.3955 0 0
29.4917 0 0
29.4917 0 0
29.5879 0 0
29.5879 0 0
29.6841 0 0
29.6841 0 0
29.7803 0 0
29.7803 0 0
29.8765 0 0
29.8765 0 0
29.9727 0 0
29.9727 0 0
30.0688 0 0
30.0688 0 0
30.165 0 0
30.165 0 0
30.2612 0 0
30.2612 0 0
30.3574 0 0
30.3574 0 0
30.4536 0 0
30.4536 0 0
30.5498 0 0
30.5498 0 0
30.646 0 0
30.646 0 0
30.7422 0 0
30.7422 0 0
30.8384 0 0
30.8384 0 0
30.9346 0 0
30.9346 0 0
31.0308 0 0
31.0308 0 0
31.127 0 0
31.127 0 0
31.2231 0 0
31.2231 0 0
31.3193 0 0
31.3193 0 0
31.4155 0 0
31.4155 0 0
31.5117 0 0
31.5117 0 0
31.6079 0 0
31.6079 0 0
31.7041 0 0
31.7041 0 0
31.8003 0 0
31.8003 0 0
31.8965 0 0
31.8965 0 0
31.9927 0 0
31.9927 0 0
32.0889 0 0
32.0889 0 0
32.1851 0 0
32.1851 0 0
32.2812 0 0
32.2812 0 0
32.3774 0 0
32.3774 0 0
32.4736 0 0
32.4736 0 0
32.5698 0 0
32.5698 0 0
32.666 0 0
32.666 0 0
32.7622 0 0
32.7622 0 0
32.8584 0 0
32.8584 0 0
32.9546 0 0
32.9546 0 0
33.0508 0 0
33.0508 0 0
33.147 0 0
33.147 0 0
33.2432 0 0
33.2432 0 0
33.3394 0 0
33.3394 0 0
33.4355 0 0
33.4355 0 0
33.5317 0 0
33.5317 0 0
33.6279 0 0
33.6279 0 0
33.7241 0 0
33.7241 0 0
33.8203 0 0
33.8203 0 0
33.9165 0 0
33.9165 0 0
34.0127 0 0
34.0127 0 0
34.1089 0 0
34.1089 0 0
34.2051 0 0
34.2051 0 0
34.3013 0 0
34.3013 0 0
34.3975 0 0
34.3975 0 0
34.4937 0 0
34.4937 0 0
34.5898 0 0
34.5898 0 0
34.686 0 0
34.686 0 0
34.7822 0 0
34.7822 0 0
34.8784 0 0
34.8784 0 0
34.9746 0 0
34.9746 0 0
35.0708 0 0
35.0708 0 0
35.167 0 0
35.167 0 0
35.2632 0 0
35.2632 0 0
35.3594 0 0
35.3594 0 0
35.4556 0 0
35.4556 0 0
35.5518 0 0
35.5518 0 0
35.6479 0 0
35.6479 0 0
35.7441 0 0
35.7441 0 0
35.8403 0 0
35.8403 0 0
35.9365 0 0
35.9365 0 0
36.0327 0 0
36.0327 0 0
36.1289 0 0
36.1289 0 0
36.2251 0 0
36.2251 0 0
36.3213 0 0
36.3213 0 0
36.4175 0 0
36.4175 0 0
36.5137 0 0
36.5137 0 0
36.6099 0 0
36.6099 0 0
36.7061 0 0
36.7061 0 0
36.8022 0 0
36.8022 0 0
36.8984 0 0
36.8984 0 0
36.9946 0 0
36.9946 0 0
37.0908 0 0
37.0908 0 0
37.187 0 0
37.187 0 0
37.2832 0 0
37.2832 0 0
37.3794 0 0
37.3794 0 0
37.4756 0 0
37.4756 0 0
37.5718 0 0
37.5718 0 0
37.668 0 0
37.668 0 0
37.7642 0 0
37.7642 0 0
37.8604 0 0
37.8604 0 0
37.9565 0 0
37.9565 0 0
38.0527 0 0
38.0527 0 0
38.1489 0 0
38.1489 0 0
38.2451 0 0
38.2451 0 0
38.3413 0 0
38.3413 0 0
38.4375 0 0
38.4375 0 0
38.5337 0 0
38.5337 0 0
38.6299 0 0
38.6299 0 0
38.7261 0 0
38.7261 0 0
38.8223 0 0
38.8223 0 0
38.9185 0 0
38.9185 0 0
39.0146 0 0
39.0146 0 0
39.1108 0 0
39.1108 0 0
39.207 0 0
39.207 0 0
39.3032 0 0
39.3032 0 0
39.3994 0 0
39.3994 0 0
39.4956 0 0
39.4956 0 0
39.5918 0 0
39.5918 0 0
39.688 0 0
39.688 0 0
39.7842 0 0
39.7842 0 0
39.8804 0 0
39.8804 0 0
39.9766 0 0
39.9766 0 0
40.0728 0 0
40.0728 0 0
40.1689 0 0
40.1689 0 0
40.2651 0 0
40.2651 0 0
40.3613 0 0
40.3613 0 0
40.4575 0 0
40.4575 0 0
40.5537 0 0
40.5537 0 0
40.6499 0 0
40.6499 0 0
40.7461 0 0
40.7461 0 0
40.8423 0 0
40.8423 0 0
40.9385 0 0
40.9385 0 0
41.0347 0 0
41.0347 0 0
41.1309 0 0
41.1309 0 0
41.2271 0 0
41.2271 0 0
[...]
POINT_DATA 2048
SCALARS solution_0 double 1
LOOKUP_TABLE default
0.100993 0.108979 0.108979 0.116781 0.116781 0.124487 0.124487 0.132164 0.132164 0.139864 0.139864 0.147628 0.147628 0.155488 0.155488 0.163473 0.163473 0.171604 0.171604 0.1799 0.1799 0.188377 0.188377 0.197046 0.197046 0.20592 0.20592 0.215007 0.215007 0.224316 0.224316 0.233852 0.233852 0.243622 0.243622 0.253629 0.253629 0.263877 0.263877 0.274369 0.274369 0.285107 0.285107 0.296091 0.296091 0.307323 0.307323 0.318802 0.318802 0.330527 0.330527 0.342497 0.342497 0.35471 0.35471 0.367163 0.367163 0.379854 0.379854 0.392777 0.392777 0.40593 0.40593 0.419307 0.419307 0.432902 0.432902 0.44671 0.44671 0.460724 0.460724 0.474937 0.474937 0.489341 0.489341 0.503928 0.503928 0.518689 0.518689 0.533616 0.533616 0.548697 0.548697 0.563924 0.563924 0.579284 0.579284 0.594766 0.594766 0.610359 0.610359 0.626049 0.626049 0.641825 0.641825 0.657671 0.657671 0.673575 0.673575 0.689522 0.689522 0.705497 0.705497 0.721484 0.721484 0.737467 0.737467 0.753431 0.753431 0.769358 0.769358 0.785231 0.785231 0.801033 0.801033 0.816746 0.816746 0.832352 0.832352 0.847832 0.847832 0.863167 0.863167 0.878337 0.878337 0.893324 0.893324 0.908108 0.908108 0.922668 0.922668 0.936985 0.936985 0.951039 0.951039 0.964808 0.964808 0.978273 0.978273 0.991412 0.991412 1.00421 1.00421 1.01663 1.01663 1.02867 1.02867 1.0403 1.0403 1.0515 1.0515 1.06226 1.06226 1.07254 1.07254 1.08233 1.08233 1.09161 1.09161 1.10037 1.10037 1.10857 1.10857 1.1162 1.1162 1.12325 1.12325 1.12969 1.12969 1.13551 1.13551 1.14068 1.14068 1.1452 1.1452 1.14904 1.14904 1.15218 1.15218 1.15462 1.15462 1.15634 1.15634 1.15732 1.15732 1.15754 1.15754 1.15701 1.15701 1.15569 1.15569 1.15359 1.15359 1.15069 1.15069 1.14698 1.14698 1.14245 1.14245 1.1371 1.1371 1.13091 1.13091 1.12388 1.12388 1.11601 1.11601 1.10728 1.10728 1.0977 1.0977 1.08726 1.08726 1.07596 1.07596 1.0638 1.0638 1.05078 1.05078 1.0369 1.0369 1.02216 1.02216 1.00658 1.00658 0.990139 0.990139 0.972858 0.972858 0.95474 0.95474 0.935792 0.935792 0.916023 0.916023 0.895443 0.895443 0.874062 0.874062 0.851892 0.851892 0.828945 0.828945 0.805236 0.805236 0.780779 0.780779 0.755589 0.755589 0.729683 0.729683 0.70308 0.70308 0.675797 0.675797 0.647855 0.647855 0.619272 0.619272 0.590072 0.590072 0.560275 0.560275 0.529904 0.529904 0.498985 0.498985 0.46754 0.46754 0.435595 0.435595 0.403175 0.403175 0.370309 0.370309 0.337021 0.337021 0.303341 0.303341 0.269296 0.269296 0.234916 0.234916 0.200229 0.200229 0.165266 0.165266 0.130055 0.130055 0.0946282 0.0946282 0.0590157 0.0590157 0.0232485 0.0232485 -0.0126422 -0.0126422 -0.0486251 -0.0486251 -0.0846687 -0.0846687 -0.120741 -0.120741 -0.156812 -0.156812 -0.192848 -0.192848 -0.228818 -0.228818 -0.264692 -0.264692 -0.300437 -0.300437 -0.336022 -0.336022 -0.371418 -0.371418 -0.406592 -0.406592 -0.441515 -0.441515 -0.476156 -0.476156 -0.510486 -0.510486 -0.544477 -0.544477 -0.578099 -0.578099 -0.611323 -0.611323 -0.644124 -0.644124 -0.676473 -0.676473 -0.708343 -0.708343 -0.73971 -0.73971 -0.770549 -0.770549 -0.800834 -0.800834 -0.830542 -0.830542 -0.859651 -0.859651 -0.888138 -0.888138 -0.915983 -0.915983 -0.943164 -0.943164 -0.969663 -0.969663 -0.99546 -0.99546 -1.02054 -1.02054 -1.04488 -1.04488 -1.06847 -1.06847 -1.0913 -1.0913 -1.11335 -1.11335 -1.1346 -1.1346 -1.15505 -1.15505 -1.17468 -1.17468 -1.19349 -1.19349 -1.21146 -1.21146 -1.22859 -1.22859 -1.24487 -1.24487 -1.2603 -1.2603 -1.27487 -1.27487 -1.28857 -1.28857 -1.30141 -1.30141 -1.31338 -1.31338 -1.32448 -1.32448 -1.33472 -1.33472 -1.34409 -1.34409 -1.35259 -1.35259 -1.36023 -1.36023 -1.36701 -1.36701 -1.37294 -1.37294 -1.37803 -1.37803 -1.38227 -1.38227 -1.38568 -1.38568 -1.38826 -1.38826 -1.39003 -1.39003 -1.39099 -1.39099 -1.39116 -1.39116 -1.39054 -1.39054 -1.38915 -1.38915 -1.387 -1.387 -1.38411 -1.38411 -1.38048 -1.38048 -1.37614 -1.37614 -1.37109 -1.37109 -1.36536 -1.36536 -1.35896 -1.35896 -1.3519 -1.3519 -1.3442 -1.3442 -1.33589 -1.33589 -1.32698 -1.32698 -1.31748 -1.31748 -1.30741 -1.30741 -1.2968 -1.2968 -1.28567 -1.28567 -1.27402 -1.27402 -1.26189 -1.26189 -1.24929 -1.24929 -1.23623 -1.23623 -1.22275 -1.22275 -1.20886 -1.20886 -1.19458 -1.19458 -1.17993 -1.17993 -1.16493 -1.16493 -1.1496 -1.1496 -1.13396 -1.13396 -1.11803 -1.11803 -1.10183 -1.10183 -1.08537 -1.08537 -1.06869 -1.06869 -1.05179 -1.05179 -1.0347 -1.0347 -1.01743 -1.01743 -1.00001 -1.00001 -0.982444 -0.982444 -0.964761 -0.964761 -0.946975 -0.946975 -0.929104 -0.929104 -0.911163 -0.911163 -0.893171 -0.893171 -0.875143 -0.875143 -0.857095 -0.857095 -0.839043 -0.839043 -0.821001 -0.821001 -0.802985 -0.802985 -0.785008 -0.785008 -0.767085 -0.767085 -0.74923 -0.74923 -0.731454 -0.731454 -0.71377 -0.71377 -0.696192 -0.696192 -0.67873 -0.67873 -0.661395 -0.661395 -0.644199 -0.644199 -0.627152 -0.627152 -0.610263 -0.610263 -0.593541 -0.593541 -0.576997 -0.576997 -0.560638 -0.560638 -0.544472 -0.544472 -0.528508 -0.528508 -0.512751 -0.512751 -0.497208 -0.497208 -0.481887 -0.481887 -0.466792 -0.466792 -0.45193 -0.45193 -0.437304 -0.437304 -0.422921 -0.422921 -0.408782 -0.408782 -0.394894 -0.394894 -0.381258 -0.381258 -0.367878 -0.367878 -0.354756 -0.354756 -0.341894 -0.341894 -0.329295 -0.329295 -0.31696 -0.31696 -0.30489 -0.30489 -0.293086 -0.293086 -0.281549 -0.281549 -0.270278 -0.270278 -0.259274 -0.259274 -0.248536 -0.248536 -0.238063 -0.238063 -0.227855 -0.227855 -0.217911 -0.217911 -0.208229 -0.208229 -0.198807 -0.198807 -0.189643 -0.189643 -0.180737 -0.180737 -0.172084 -0.172084 -0.163683 -0.163683 -0.155532 -0.155532 -0.147626 -0.147626 -0.139964 -0.139964 -0.132542 -0.132542 -0.125357 -0.125357 -0.118405 -0.118405 -0.111683 -0.111683 -0.105188 -0.105188 -0.0989146 -0.0989146 -0.0928604 -0.0928604 -0.0870209 -0.0870209 -0.0813922 -0.0813922 -0.0759703 -0.0759703 -0.070751 -0.070751 -0.0657301 -0.0657301 -0.0609034 -0.0609034 -0.0562666 -0.0562666 -0.0518156 -0.0518156 -0.0475459 -0.0475459 -0.0434532 -0.0434532 -0.0395333 -0.0395333 -0.0357818 -0.0357818 -0.0321942 -0.0321942 -0.0287665 -0.0287665 -0.0254941 -0.0254941 -0.0223728 -0.0223728 -0.0193984 -0.0193984 -0.0165667 -0.0165667 -0.0138733 -0.0138733 -0.0113142 -0.0113142 -0.00888522 -0.00888522 -0.00658227 -0.00658227 -0.00440134 -0.00440134 -0.00233843 -0.00233843 -0.000389628 -0.000389628 0.00144894 0.00144894 0.00318109 0.00318109 0.00481056 0.00481056 0.00634103 0.00634103 0.00777612 0.00777612 0.00911939 0.00911939 0.0103743 0.0103743 0.0115443 0.0115443 0.0126326 0.0126326 0.0136426 0.0136426 0.0145775 0.0145775 0.0154403 0.0154403 0.0162341 0.0162341 0.0169619 0.0169619 0.0176265 0.0176265 0.0182307 0.0182307 0.0187774 0.0187774 0.0192691 0.0192691 0.0197084 0.0197084 0.0200978 0.0200978 0.0204399 0.0204399 0.0207368 0.0207368 0.0209909 0.0209909 0.0212045 0.0212045 0.0213796 0.0213796 0.0215183 0.0215183 0.0216227 0.0216227 0.0216946 0.0216946 0.0217359 0.0217359 0.0217484 0.0217484 0.0217338 0.0217338 0.0216937 0.0216937 0.0216299 0.0216299 0.0215437 0.0215437 0.0214367 0.0214367 0.0213103 0.0213103 0.0211659 0.0211659 0.0210046 0.0210046 0.0208279 0.0208279 0.0206368 0.0206368 0.0204325 0.0204325 0.0202161 0.0202161 0.0199885 0.0199885 0.0197509 0.0197509 0.0195041 0.0195041 0.019249 0.019249 0.0189865 0.0189865 0.0187173 0.0187173 0.0184423 0.0184423 0.018162 0.018162 0.0178774 0.0178774 0.0175888 0.0175888 0.0172971 0.0172971 0.0170027 0.0170027 0.0167062 0.0167062 0.0164081 0.0164081 0.0161089 0.0161089 0.015809 0.015809 0.0155088 0.0155088 0.0152088 0.0152088 0.0149093 0.0149093 0.0146106 0.0146106 0.014313 0.014313 0.0140169 0.0140169 0.0137225 0.0137225 0.0134301 0.0134301 0.0131399 0.0131399 0.012852 0.012852 0.0125668 0.0125668 0.0122843 0.0122843 0.0120048 0.0120048 0.0117283 0.0117283 0.011455 0.011455 0.0111851 0.0111851 0.0109186 0.0109186 0.0106555 0.0106555 0.0103961 0.0103961 0.0101403 0.0101403 0.00988825 0.00988825 0.00963994 0.00963994 0.00939542 0.00939542 0.00915473 0.00915473 0.00891788 0.00891788 0.0086849 0.0086849 0.00845578 0.00845578 0.00823053 0.00823053 0.00800914 0.00800914 0.00779161 0.00779161 0.00757791 0.00757791 0.00736802 0.00736802 0.00716193 0.00716193 0.00695959 0.00695959 0.00676099 0.00676099 0.00656607 0.00656607 0.00637481 0.00637481 0.00618716 0.00618716 0.00600308 0.00600308 0.00582252 0.00582252 0.00564543 0.00564543 0.00547176 0.00547176 0.00530147 0.00530147 0.00513449 0.00513449 0.00497078 0.00497078 0.00481028 0.00481028 0.00465294 0.00465294 0.0044987 0.0044987 0.00434749 0.00434749 0.00419928 0.00419928 0.004054 0.004054 0.00391159 0.00391159 0.00377199 0.00377199 0.00363516 0.00363516 0.00350103 0.00350103 0.00336954 0.00336954 0.00324065 0.00324065 0.0031143 0.0031143 0.00299043 0.00299043 0.00286899 0.00286899 0.00274993 0.00274993 0.00263318 0.00263318 0.00251871 0.00251871 0.00240646 0.00240646 0.00229638 0.00229638 0.00218842 0.00218842 0.00208254 0.00208254 0.00197868 0.00197868 0.0018768 0.0018768 0.00177685 0.00177685 0.00167879 0.00167879 0.00158257 0.00158257 0.00148816 0.00148816 0.00139551 0.00139551 0.00130457 0.00130457 0.00121532 0.00121532 0.0011277 0.0011277 0.00104169 0.00104169 0.000957239 0.000957239 0.000874318 0.000874318 0.000792891 0.000792891 0.000712923 0.000712923 0.00063438 0.00063438 0.00055723 0.00055723 0.000481441 0.000481441 0.000406982 0.000406982 0.000333823 0.000333823 0.000261936 0.000261936 0.000191291 0.000191291 0.000121861 0.000121861 5.36198e-05 5.36198e-05 -1.34593e-05 -1.34593e-05 -7.94014e-05 -7.94014e-05 -0.000144231 -0.000144231 -0.000207972 -0.000207972 -0.000270647 -0.000270647 -0.000332279 -0.000332279 -0.00039289 -0.00039289 -0.0004525 -0.0004525 -0.000511131 -0.000511131 -0.000568802 -0.000568802 -0.000625532 -0.000625532 -0.000681341 -0.000681341 -0.000736245 -0.000736245 -0.000790264 -0.000790264 -0.000843413 -0.000843413 -0.00089571 -0.00089571 -0.00094717 -0.00094717 -0.000997809 -0.000997809 -0.00104764 -0.00104764 -0.00109668 -0.00109668 -0.00114495 -0.00114495 -0.00119245 -0.00119245 -0.0012392 -0.0012392 -0.00128522 -0.00128522 -0.0013305 -0.0013305 -0.00137508 -0.00137508 -0.00141896 -0.00141896 -0.00146215 -0.00146215 -0.00150466 -0.00150466 -0.0015465 -0.0015465 -0.00158768 -0.00158768 -0.00162822 -0.00162822 -0.00166812 -0.00166812 -0.0017074 -0.0017074 -0.00174606 -0.00174606 -0.00178411 -0.00178411 -0.00182156 -0.00182156 -0.00185842 -0.00185842 -0.00189469 -0.00189469 -0.00193039 -0.00193039 -0.00196553 -0.00196553 -0.0020001 -0.0020001 -0.00203413 -0.00203413 -0.00206761 -0.00206761 -0.00210055 -0.00210055 -0.00213297 -0.00213297 -0.00216486 -0.00216486 -0.00219623 -0.00219623 -0.0022271 -0.0022271 -0.00225746 -0.00225746 -0.00228733 -0.00228733 -0.00231671 -0.00231671 -0.0023456 -0.0023456 -0.00237401 -0.00237401 -0.00240196 -0.00240196 -0.00242943 -0.00242943 -0.00245645 -0.00245645 -0.002483 -0.002483 -0.00250911 -0.00250911 -0.00253478 -0.00253478 -0.00256001 -0.00256001 -0.0025848 -0.0025848 -0.00260916 -0.00260916 -0.00263311 -0.00263311 -0.00265663 -0.00265663 -0.00267974 -0.00267974 -0.00270245 -0.00270245 -0.00272475 -0.00272475 -0.00274665 -0.00274665 -0.00276816 -0.00276816 -0.00278928 -0.00278928 -0.00281002 -0.00281002 -0.00283038 -0.00283038 -0.00285036 -0.00285036 -0.00286997 -0.00286997 -0.00288922 -0.00288922 -0.0029081 -0.0029081 -0.00292662 -0.00292662 -0.00294479 -0.00294479 -0.00296261 -0.00296261 -0.00298008 -0.00298008 -0.00299721 -0.00299721 -0.00301399 -0.00301399 -0.00303043 -0.00303043 -0.00304654 -0.00304654 -0.00306231 -0.00306231 -0.00307775 -0.00307775 -0.00309286 -0.00309286 -0.00310764 -0.00310764 -0.00312209 -0.00312209 -0.00313621 -0.00313621 -0.00315 -0.00315 -0.00316346 -0.00316346 -0.00317659 -0.00317659 -0.00318939 -0.00318939 -0.00320185 -0.00320185 -0.00321397 -0.00321397 -0.00322575 -0.00322575 -0.00323718 -0.00323718 -0.00324826 -0.00324826 -0.00325899 -0.00325899 -0.00326935 -0.00326935 -0.00327933 -0.00327933 -0.00328894 -0.00328894 -0.00329816 -0.00329816 -0.00330698 -0.00330698 -0.00331539 -0.00331539 -0.00332338 -0.00332338 -0.00333093 -0.00333093 -0.00333803 -0.00333803 -0.00334467 -0.00334467 -0.00335083 -0.00335083 -0.00335649 -0.00335649 -0.00336163 -0.00336163 -0.00336625 -0.00336625 -0.00337031 -0.00337031 -0.00337379 -0.00337379 -0.00337668 -0.00337668 -0.00337895 -0.00337895 -0.00338058 -0.00338058 -0.00338153 -0.00338153 -0.0033818 -0.0033818 -0.00338134 -0.00338134 -0.00338014 -0.00338014 -0.00337816 -0.00337816 -0.00337538 -0.00337538 -0.00337177 -0.00337177 -0.0033673 -0.0033673 -0.00336193 -0.00336193 -0.00335565 -0.00335565 -0.00334841 -0.00334841 -0.00334019 -0.00334019 -0.00333095 -0.00333095 -0.00332067 -0.00332067 -0.00330931 -0.00330931 -0.00329685 -0.00329685 -0.00328325 -0.00328325 -0.00326849 -0.00326849 -0.00325253 -0.00325253 -0.00323535 -0.00323535 -0.00321692 -0.00321692 -0.00319722 -0.00319722 -0.00317621 -0.00317621 -0.00315388 -0.00315388 -0.00313021 -0.00313021 -0.00310516 -0.00310516 -0.00307872 -0.00307872 -0.00305088 -0.00305088 -0.00302161 -0.00302161 -0.00299091 -0.00299091 -0.00295876 -0.00295876 -0.00292514 -0.00292514 -0.00289006 -0.00289006 -0.00285351 -0.00285351 -0.00281548 -0.00281548 -0.00277597 -0.00277597 -0.00273499 -0.00273499 -0.00269254 -0.00269254 -0.00264862 -0.00264862 -0.00260325 -0.00260325 -0.00255644 -0.00255644 -0.0025082 -0.0025082 -0.00245856 -0.00245856 -0.00240752 -0.00240752 -0.00235513 -0.00235513 -0.00230139 -0.00230139 -0.00224635 -0.00224635 -0.00219003 -0.00219003 -0.00213246 -0.00213246 -0.00207369 -0.00207369 -0.00201376 -0.00201376 -0.0019527 -0.0019527 -0.00189057 -0.00189057 -0.0018274 -0.0018274 -0.00176325 -0.00176325 -0.00169816 -0.00169816 -0.0016322 -0.0016322 -0.00156541 -0.00156541 -0.00149785 -0.00149785 -0.00142959 -0.00142959 -0.00136067 -0.00136067 -0.00129117 -0.00129117 -0.00122114 -0.00122114 -0.00115065 -0.00115065 -0.00107976 -0.00107976 -0.00100854 -0.00100854 -0.000937046 -0.000937046 -0.000865353 -0.000865353 -0.000793523 -0.000793523 -0.000721624 -0.000721624 -0.000649722 -0.000649722 -0.000577882 -0.000577882 -0.000506171 -0.000506171 -0.000434653 -0.000434653 -0.000363393 -0.000363393 -0.000292455 -0.000292455 -0.000221902 -0.000221902 -0.000151795 -0.000151795 -8.21951e-05 -8.21951e-05 -1.31616e-05 -1.31616e-05 5.52473e-05 5.52473e-05 0.000122975 0.000122975 0.000189967 0.000189967 0.00025617 0.00025617 0.000321531 0.000321531 0.000386002 0.000386002 0.000449533 0.000449533 0.000512079 0.000512079 0.000573595 0.000573595 0.000634039 0.000634039 0.00069337 0.00069337 0.000751549 0.000751549 0.000808541 0.000808541 0.000864309 0.000864309 0.000918821 0.000918821 0.000972046 0.000972046 0.00102395 0.00102395 0.00107452 0.00107452 0.00112371 0.00112371 0.00117151 0.00117151 0.00121789 0.00121789 0.00126283 0.00126283 0.00130632 0.00130632 0.00134832 0.00134832 0.00138883 0.00138883 0.00142783 0.00142783 0.0014653 0.0014653 0.00150124 0.00150124 0.00153561 0.00153561 0.00156842 0.00156842 0.00159965 0.00159965 0.00162929 0.00162929 0.00165732 0.00165732 0.00168374 0.00168374 0.00170853 0.00170853 0.00173169 0.00173169 0.0017532 0.0017532 0.00177305 0.00177305 0.00179123 0.00179123 0.00180773 0.00180773 0.00182254 0.00182254 0.00183564 0.00183564 0.00184703 0.00184703 0.00185668 0.00185668 0.00186459 0.00186459 0.00187074 0.00187074 0.00187512 0.00187512 0.00187771 0.00187771 0.00187849 0.00187849 0.00187746 0.00187746 0.00187458 0.00187458 0.00186984 0.00186984 0.00186323 0.00186323 0.00185472 0.00185472 0.00184429 0.00184429 0.00183193 0.00183193 0.0018176 0.0018176 0.0018013 0.0018013 0.001783 0.001783 0.00176267 0.00176267 0.00174029 0.00174029 0.00171584 0.00171584 0.0016893 0.0016893 0.00166064 0.00166064 0.00162984 0.00162984 0.00159688 0.00159688 0.00156174 0.00156174 0.00152439 0.00152439 0.00148481 0.00148481 0.00144298 0.00144298 0.00139889 0.00139889 0.00135251 0.00135251 0.00130382 0.00130382 0.00125281 0.00125281 0.00119945 0.00119945 0.00114375 0.00114375 0.00108568 0.00108568 0.00102523 0.00102523 0.000962395 0.000962395 0.000897163 0.000897163 0.00082953 0.00082953 0.000759491 0.000759491 0.000687046 0.000687046 0.000612194 0.000612194 0.000534938 0.000534938 0.000455284 0.000455284 0.00037324 0.00037324 0.000288815 0.000288815 0.000202024 0.000202024 0.000112882 0.000112882 2.14074e-05 2.14074e-05 -7.23773e-05 -7.23773e-05 -0.000168448 -0.000168448 -0.000266776 -0.000266776 -0.000367332 -0.000367332 -0.000470082 -0.000470082 -0.000574987 -0.000574987 -0.00068201 -0.00068201 -0.000791106 -0.000791106 -0.000902229 -0.000902229 -0.00101533 -0.00101533 -0.00113035 -0.00113035 -0.00124725 -0.00124725 -0.00136595 -0.00136595 -0.0014864 -0.0014864 -0.00160853 -0.00160853 -0.00173228 -0.00173228 -0.00185757 -0.00185757 -0.00198433 -0.00198433 -0.00211248 -0.00211248 -0.00224194 -0.00224194 -0.00237263 -0.00237263 -0.00250447 -0.00250447 -0.00263736 -0.00263736 -0.00277122 -0.00277122 -0.00290595 -0.00290595 -0.00304145 -0.00304145 -0.00317764 -0.00317764 -0.00331441 -0.00331441 -0.00345166 -0.00345166 -0.00358928 -0.00358928 -0.00372717 -0.00372717 -0.00386523 -0.00386523 -0.00400335 -0.00400335 -0.0041414 -0.0041414 -0.0042793 -0.0042793 -0.00441692 -0.00441692 -0.00455415 -0.00455415 -0.00469087 -0.00469087 -0.00482698 -0.00482698 -0.00496235 -0.00496235 -0.00509687 -0.00509687 -0.00523043 -0.00523043 -0.00536291 -0.00536291 -0.00549419 -0.00549419 -0.00562416 -0.00562416 -0.0057527 -0.0057527 -0.0058797 -0.0058797 -0.00600504 -0.00600504 -0.00612861 -0.00612861 -0.0062503 -0.0062503 -0.00636999 -0.00636999 -0.00648758 -0.00648758 -0.00660296 -0.00660296 -0.00671601 -0.00671601 -0.00682663 -0.00682663 -0.00693472 -0.00693472 -0.00704018 -0.00704018 -0.0071429 -0.0071429 -0.00724279 -0.00724279 -0.00733974 -0.00733974 -0.00743368 -0.00743368 -0.00752449 -0.00752449 -0.00761211 -0.00761211 -0.00769643 -0.00769643 -0.00777738 -0.00777738 -0.00785488 -0.00785488 -0.00792884 -0.00792884 -0.0079992 -0.0079992 -0.00806588 -0.00806588 -0.00812882 -0.00812882 -0.00818794 -0.00818794 -0.00824319 -0.00824319 -0.00829451 -0.00829451 -0.00834185 -0.00834185 -0.00838515 -0.00838515 -0.00842436 -0.00842436 -0.00845945 -0.00845945 -0.00849036 -0.00849036 -0.00851708 -0.00851708 -0.00853955 -0.00853955 -0.00855775 -0.00855775 -0.00857166 -0.00857166 -0.00858125 -0.00858125 -0.0085865 -0.0085865 -0.00858741 -0.00858741 -0.00858395 -0.00858395 -0.00857612 -0.00857612 -0.00856392 -0.00856392 -0.00854735 -0.00854735 -0.0085264 -0.0085264 -0.00850109 -0.00850109 -0.00847143 -0.00847143 -0.00843742 -0.00843742 -0.00839909 -0.00839909 -0.00835646 -0.00835646 -0.00830954 -0.00830954 -0.00825838 -0.00825838 -0.00820298 -0.00820298 -0.0081434 -0.0081434 -0.00807966 -0.00807966 -0.0080118 -0.0080118 -0.00793986 -0.00793986 -0.00786389 -0.00786389 -0.00778393 -0.00778393 -0.00770003 -0.00770003 -0.00761224 -0.00761224 -0.00752062 -0.00752062 -0.00742522 -0.00742522 -0.00732609 -0.00732609 -0.00722331 -0.00722331 -0.00711691 -0.00711691 -0.00700698 -0.00700698 -0.00689357 -0.00689357 -0.00677675 -0.00677675 -0.00665659 -0.00665659 -0.00653315 -0.00653315 -0.0064065 -0.0064065 -0.00627671 -0.00627671 -0.00614385 -0.00614385 -0.006008 -0.006008 -0.00586923 -0.00586923 -0.0057276 -0.0057276 -0.00558319 -0.00558319 -0.00543607 -0.00543607 -0.00528631 -0.00528631 -0.005134 -0.005134 -0.00497919 -0.00497919 -0.00482196 -0.00482196 -0.00466238 -0.00466238 -0.00450053 -0.00450053 -0.00433646 -0.00433646 -0.00417026 -0.00417026 -0.00400198 -0.00400198 -0.0038317 -0.0038317 -0.00365948 -0.00365948 -0.00348539 -0.00348539 -0.00330948 -0.00330948 -0.00313183 -0.00313183 -0.00295248 -0.00295248 -0.0027715 -0.0027715 -0.00258894 -0.00258894 -0.00240486 -0.00240486 -0.00221931 -0.00221931 -0.00203234 -0.00203234 -0.00184399 -0.00184399 -0.00165432 -0.00165432 -0.00146337 -0.00146337 -0.00127117 -0.00127117 -0.00107776 -0.00107776 -0.000883186 -0.000883186 -0.000687474 -0.000687474 -0.000490654 -0.000490654 -0.000292754 -0.000292754 -9.37971e-05 -9.37971e-05 0.000106194 0.000106194 0.00