# vtk DataFile Version 3.0
#This file was generated by the deal.II library on 2020/9/1 at 14:41:32
ASCII
DATASET UNSTRUCTURED_GRID

POINTS 2048 double
1.5 0 0
1.59619 0 0
1.59619 0 0
1.69238 0 0
1.69238 0 0
1.78857 0 0
1.78857 0 0
1.88477 0 0
1.88477 0 0
1.98096 0 0
1.98096 0 0
2.07715 0 0
2.07715 0 0
2.17334 0 0
2.17334 0 0
2.26953 0 0
2.26953 0 0
2.36572 0 0
2.36572 0 0
2.46191 0 0
2.46191 0 0
2.55811 0 0
2.55811 0 0
2.6543 0 0
2.6543 0 0
2.75049 0 0
2.75049 0 0
2.84668 0 0
2.84668 0 0
2.94287 0 0
2.94287 0 0
3.03906 0 0
3.03906 0 0
3.13525 0 0
3.13525 0 0
3.23145 0 0
3.23145 0 0
3.32764 0 0
3.32764 0 0
3.42383 0 0
3.42383 0 0
3.52002 0 0
3.52002 0 0
3.61621 0 0
3.61621 0 0
3.7124 0 0
3.7124 0 0
3.80859 0 0
3.80859 0 0
3.90479 0 0
3.90479 0 0
4.00098 0 0
4.00098 0 0
4.09717 0 0
4.09717 0 0
4.19336 0 0
4.19336 0 0
4.28955 0 0
4.28955 0 0
4.38574 0 0
4.38574 0 0
4.48193 0 0
4.48193 0 0
4.57812 0 0
4.57812 0 0
4.67432 0 0
4.67432 0 0
4.77051 0 0
4.77051 0 0
4.8667 0 0
4.8667 0 0
4.96289 0 0
4.96289 0 0
5.05908 0 0
5.05908 0 0
5.15527 0 0
5.15527 0 0
5.25146 0 0
5.25146 0 0
5.34766 0 0
5.34766 0 0
5.44385 0 0
5.44385 0 0
5.54004 0 0
5.54004 0 0
5.63623 0 0
5.63623 0 0
5.73242 0 0
5.73242 0 0
5.82861 0 0
5.82861 0 0
5.9248 0 0
5.9248 0 0
6.021 0 0
6.021 0 0
6.11719 0 0
6.11719 0 0
6.21338 0 0
6.21338 0 0
6.30957 0 0
6.30957 0 0
6.40576 0 0
6.40576 0 0
6.50195 0 0
6.50195 0 0
6.59814 0 0
6.59814 0 0
6.69434 0 0
6.69434 0 0
6.79053 0 0
6.79053 0 0
6.88672 0 0
6.88672 0 0
6.98291 0 0
6.98291 0 0
7.0791 0 0
7.0791 0 0
7.17529 0 0
7.17529 0 0
7.27148 0 0
7.27148 0 0
7.36768 0 0
7.36768 0 0
7.46387 0 0
7.46387 0 0
7.56006 0 0
7.56006 0 0
7.65625 0 0
7.65625 0 0
7.75244 0 0
7.75244 0 0
7.84863 0 0
7.84863 0 0
7.94482 0 0
7.94482 0 0
8.04102 0 0
8.04102 0 0
8.13721 0 0
8.13721 0 0
8.2334 0 0
8.2334 0 0
8.32959 0 0
8.32959 0 0
8.42578 0 0
8.42578 0 0
8.52197 0 0
8.52197 0 0
8.61816 0 0
8.61816 0 0
8.71436 0 0
8.71436 0 0
8.81055 0 0
8.81055 0 0
8.90674 0 0
8.90674 0 0
9.00293 0 0
9.00293 0 0
9.09912 0 0
9.09912 0 0
9.19531 0 0
9.19531 0 0
9.2915 0 0
9.2915 0 0
9.3877 0 0
9.3877 0 0
9.48389 0 0
9.48389 0 0
9.58008 0 0
9.58008 0 0
9.67627 0 0
9.67627 0 0
9.77246 0 0
9.77246 0 0
9.86865 0 0
9.86865 0 0
9.96484 0 0
9.96484 0 0
10.061 0 0
10.061 0 0
10.1572 0 0
10.1572 0 0
10.2534 0 0
10.2534 0 0
10.3496 0 0
10.3496 0 0
10.4458 0 0
10.4458 0 0
10.542 0 0
10.542 0 0
10.6382 0 0
10.6382 0 0
10.7344 0 0
10.7344 0 0
10.8306 0 0
10.8306 0 0
10.9268 0 0
10.9268 0 0
11.0229 0 0
11.0229 0 0
11.1191 0 0
11.1191 0 0
11.2153 0 0
11.2153 0 0
11.3115 0 0
11.3115 0 0
11.4077 0 0
11.4077 0 0
11.5039 0 0
11.5039 0 0
11.6001 0 0
11.6001 0 0
11.6963 0 0
11.6963 0 0
11.7925 0 0
11.7925 0 0
11.8887 0 0
11.8887 0 0
11.9849 0 0
11.9849 0 0
12.0811 0 0
12.0811 0 0
12.1772 0 0
12.1772 0 0
12.2734 0 0
12.2734 0 0
12.3696 0 0
12.3696 0 0
12.4658 0 0
12.4658 0 0
12.562 0 0
12.562 0 0
12.6582 0 0
12.6582 0 0
12.7544 0 0
12.7544 0 0
12.8506 0 0
12.8506 0 0
12.9468 0 0
12.9468 0 0
13.043 0 0
13.043 0 0
13.1392 0 0
13.1392 0 0
13.2354 0 0
13.2354 0 0
13.3315 0 0
13.3315 0 0
13.4277 0 0
13.4277 0 0
13.5239 0 0
13.5239 0 0
13.6201 0 0
13.6201 0 0
13.7163 0 0
13.7163 0 0
13.8125 0 0
13.8125 0 0
13.9087 0 0
13.9087 0 0
14.0049 0 0
14.0049 0 0
14.1011 0 0
14.1011 0 0
14.1973 0 0
14.1973 0 0
14.2935 0 0
14.2935 0 0
14.3896 0 0
14.3896 0 0
14.4858 0 0
14.4858 0 0
14.582 0 0
14.582 0 0
14.6782 0 0
14.6782 0 0
14.7744 0 0
14.7744 0 0
14.8706 0 0
14.8706 0 0
14.9668 0 0
14.9668 0 0
15.063 0 0
15.063 0 0
15.1592 0 0
15.1592 0 0
15.2554 0 0
15.2554 0 0
15.3516 0 0
15.3516 0 0
15.4478 0 0
15.4478 0 0
15.5439 0 0
15.5439 0 0
15.6401 0 0
15.6401 0 0
15.7363 0 0
15.7363 0 0
15.8325 0 0
15.8325 0 0
15.9287 0 0
15.9287 0 0
16.0249 0 0
16.0249 0 0
16.1211 0 0
16.1211 0 0
16.2173 0 0
16.2173 0 0
16.3135 0 0
16.3135 0 0
16.4097 0 0
16.4097 0 0
16.5059 0 0
16.5059 0 0
16.6021 0 0
16.6021 0 0
16.6982 0 0
16.6982 0 0
16.7944 0 0
16.7944 0 0
16.8906 0 0
16.8906 0 0
16.9868 0 0
16.9868 0 0
17.083 0 0
17.083 0 0
17.1792 0 0
17.1792 0 0
17.2754 0 0
17.2754 0 0
17.3716 0 0
17.3716 0 0
17.4678 0 0
17.4678 0 0
17.564 0 0
17.564 0 0
17.6602 0 0
17.6602 0 0
17.7563 0 0
17.7563 0 0
17.8525 0 0
17.8525 0 0
17.9487 0 0
17.9487 0 0
18.0449 0 0
18.0449 0 0
18.1411 0 0
18.1411 0 0
18.2373 0 0
18.2373 0 0
18.3335 0 0
18.3335 0 0
18.4297 0 0
18.4297 0 0
18.5259 0 0
18.5259 0 0
18.6221 0 0
18.6221 0 0
18.7183 0 0
18.7183 0 0
18.8145 0 0
18.8145 0 0
18.9106 0 0
18.9106 0 0
19.0068 0 0
19.0068 0 0
19.103 0 0
19.103 0 0
19.1992 0 0
19.1992 0 0
19.2954 0 0
19.2954 0 0
19.3916 0 0
19.3916 0 0
19.4878 0 0
19.4878 0 0
19.584 0 0
19.584 0 0
19.6802 0 0
19.6802 0 0
19.7764 0 0
19.7764 0 0
19.8726 0 0
19.8726 0 0
19.9688 0 0
19.9688 0 0
20.0649 0 0
20.0649 0 0
20.1611 0 0
20.1611 0 0
20.2573 0 0
20.2573 0 0
20.3535 0 0
20.3535 0 0
20.4497 0 0
20.4497 0 0
20.5459 0 0
20.5459 0 0
20.6421 0 0
20.6421 0 0
20.7383 0 0
20.7383 0 0
20.8345 0 0
20.8345 0 0
20.9307 0 0
20.9307 0 0
21.0269 0 0
21.0269 0 0
21.123 0 0
21.123 0 0
21.2192 0 0
21.2192 0 0
21.3154 0 0
21.3154 0 0
21.4116 0 0
21.4116 0 0
21.5078 0 0
21.5078 0 0
21.604 0 0
21.604 0 0
21.7002 0 0
21.7002 0 0
21.7964 0 0
21.7964 0 0
21.8926 0 0
21.8926 0 0
21.9888 0 0
21.9888 0 0
22.085 0 0
22.085 0 0
22.1812 0 0
22.1812 0 0
22.2773 0 0
22.2773 0 0
22.3735 0 0
22.3735 0 0
22.4697 0 0
22.4697 0 0
22.5659 0 0
22.5659 0 0
22.6621 0 0
22.6621 0 0
22.7583 0 0
22.7583 0 0
22.8545 0 0
22.8545 0 0
22.9507 0 0
22.9507 0 0
23.0469 0 0
23.0469 0 0
23.1431 0 0
23.1431 0 0
23.2393 0 0
23.2393 0 0
23.3354 0 0
23.3354 0 0
23.4316 0 0
23.4316 0 0
23.5278 0 0
23.5278 0 0
23.624 0 0
23.624 0 0
23.7202 0 0
23.7202 0 0
23.8164 0 0
23.8164 0 0
23.9126 0 0
23.9126 0 0
24.0088 0 0
24.0088 0 0
24.105 0 0
24.105 0 0
24.2012 0 0
24.2012 0 0
24.2974 0 0
24.2974 0 0
24.3936 0 0
24.3936 0 0
24.4897 0 0
24.4897 0 0
24.5859 0 0
24.5859 0 0
24.6821 0 0
24.6821 0 0
24.7783 0 0
24.7783 0 0
24.8745 0 0
24.8745 0 0
24.9707 0 0
24.9707 0 0
25.0669 0 0
25.0669 0 0
25.1631 0 0
25.1631 0 0
25.2593 0 0
25.2593 0 0
25.3555 0 0
25.3555 0 0
25.4517 0 0
25.4517 0 0
25.5479 0 0
25.5479 0 0
25.644 0 0
25.644 0 0
25.7402 0 0
25.7402 0 0
25.8364 0 0
25.8364 0 0
25.9326 0 0
25.9326 0 0
26.0288 0 0
26.0288 0 0
26.125 0 0
26.125 0 0
26.2212 0 0
26.2212 0 0
26.3174 0 0
26.3174 0 0
26.4136 0 0
26.4136 0 0
26.5098 0 0
26.5098 0 0
26.606 0 0
26.606 0 0
26.7021 0 0
26.7021 0 0
26.7983 0 0
26.7983 0 0
26.8945 0 0
26.8945 0 0
26.9907 0 0
26.9907 0 0
27.0869 0 0
27.0869 0 0
27.1831 0 0
27.1831 0 0
27.2793 0 0
27.2793 0 0
27.3755 0 0
27.3755 0 0
27.4717 0 0
27.4717 0 0
27.5679 0 0
27.5679 0 0
27.6641 0 0
27.6641 0 0
27.7603 0 0
27.7603 0 0
27.8564 0 0
27.8564 0 0
27.9526 0 0
27.9526 0 0
28.0488 0 0
28.0488 0 0
28.145 0 0
28.145 0 0
28.2412 0 0
28.2412 0 0
28.3374 0 0
28.3374 0 0
28.4336 0 0
28.4336 0 0
28.5298 0 0
28.5298 0 0
28.626 0 0
28.626 0 0
28.7222 0 0
28.7222 0 0
28.8184 0 0
28.8184 0 0
28.9146 0 0
28.9146 0 0
29.0107 0 0
29.0107 0 0
29.1069 0 0
29.1069 0 0
29.2031 0 0
29.2031 0 0
29.2993 0 0
29.2993 0 0
29.3955 0 0
29.3955 0 0
29.4917 0 0
29.4917 0 0
29.5879 0 0
29.5879 0 0
29.6841 0 0
29.6841 0 0
29.7803 0 0
29.7803 0 0
29.8765 0 0
29.8765 0 0
29.9727 0 0
29.9727 0 0
30.0688 0 0
30.0688 0 0
30.165 0 0
30.165 0 0
30.2612 0 0
30.2612 0 0
30.3574 0 0
30.3574 0 0
30.4536 0 0
30.4536 0 0
30.5498 0 0
30.5498 0 0
30.646 0 0
30.646 0 0
30.7422 0 0
30.7422 0 0
30.8384 0 0
30.8384 0 0
30.9346 0 0
30.9346 0 0
31.0308 0 0
31.0308 0 0
31.127 0 0
31.127 0 0
31.2231 0 0
31.2231 0 0
31.3193 0 0
31.3193 0 0
31.4155 0 0
31.4155 0 0
31.5117 0 0
31.5117 0 0
31.6079 0 0
31.6079 0 0
31.7041 0 0
31.7041 0 0
31.8003 0 0
31.8003 0 0
31.8965 0 0
31.8965 0 0
31.9927 0 0
31.9927 0 0
32.0889 0 0
32.0889 0 0
32.1851 0 0
32.1851 0 0
32.2812 0 0
32.2812 0 0
32.3774 0 0
32.3774 0 0
32.4736 0 0
32.4736 0 0
32.5698 0 0
32.5698 0 0
32.666 0 0
32.666 0 0
32.7622 0 0
32.7622 0 0
32.8584 0 0
32.8584 0 0
32.9546 0 0
32.9546 0 0
33.0508 0 0
33.0508 0 0
33.147 0 0
33.147 0 0
33.2432 0 0
33.2432 0 0
33.3394 0 0
33.3394 0 0
33.4355 0 0
33.4355 0 0
33.5317 0 0
33.5317 0 0
33.6279 0 0
33.6279 0 0
33.7241 0 0
33.7241 0 0
33.8203 0 0
33.8203 0 0
33.9165 0 0
33.9165 0 0
34.0127 0 0
34.0127 0 0
34.1089 0 0
34.1089 0 0
34.2051 0 0
34.2051 0 0
34.3013 0 0
34.3013 0 0
34.3975 0 0
34.3975 0 0
34.4937 0 0
34.4937 0 0
34.5898 0 0
34.5898 0 0
34.686 0 0
34.686 0 0
34.7822 0 0
34.7822 0 0
34.8784 0 0
34.8784 0 0
34.9746 0 0
34.9746 0 0
35.0708 0 0
35.0708 0 0
35.167 0 0
35.167 0 0
35.2632 0 0
35.2632 0 0
35.3594 0 0
35.3594 0 0
35.4556 0 0
35.4556 0 0
35.5518 0 0
35.5518 0 0
35.6479 0 0
35.6479 0 0
35.7441 0 0
35.7441 0 0
35.8403 0 0
35.8403 0 0
35.9365 0 0
35.9365 0 0
36.0327 0 0
36.0327 0 0
36.1289 0 0
36.1289 0 0
36.2251 0 0
36.2251 0 0
36.3213 0 0
36.3213 0 0
36.4175 0 0
36.4175 0 0
36.5137 0 0
36.5137 0 0
36.6099 0 0
36.6099 0 0
36.7061 0 0
36.7061 0 0
36.8022 0 0
36.8022 0 0
36.8984 0 0
36.8984 0 0
36.9946 0 0
36.9946 0 0
37.0908 0 0
37.0908 0 0
37.187 0 0
37.187 0 0
37.2832 0 0
37.2832 0 0
37.3794 0 0
37.3794 0 0
37.4756 0 0
37.4756 0 0
37.5718 0 0
37.5718 0 0
37.668 0 0
37.668 0 0
37.7642 0 0
37.7642 0 0
37.8604 0 0
37.8604 0 0
37.9565 0 0
37.9565 0 0
38.0527 0 0
38.0527 0 0
38.1489 0 0
38.1489 0 0
38.2451 0 0
38.2451 0 0
38.3413 0 0
38.3413 0 0
38.4375 0 0
38.4375 0 0
38.5337 0 0
38.5337 0 0
38.6299 0 0
38.6299 0 0
38.7261 0 0
38.7261 0 0
38.8223 0 0
38.8223 0 0
38.9185 0 0
38.9185 0 0
39.0146 0 0
39.0146 0 0
39.1108 0 0
39.1108 0 0
39.207 0 0
39.207 0 0
39.3032 0 0
39.3032 0 0
39.3994 0 0
39.3994 0 0
39.4956 0 0
39.4956 0 0
39.5918 0 0
39.5918 0 0
39.688 0 0
39.688 0 0
39.7842 0 0
39.7842 0 0
39.8804 0 0
39.8804 0 0
39.9766 0 0
39.9766 0 0
40.0728 0 0
40.0728 0 0
40.1689 0 0
40.1689 0 0
40.2651 0 0
40.2651 0 0
40.3613 0 0
40.3613 0 0
40.4575 0 0
40.4575 0 0
40.5537 0 0
40.5537 0 0
40.6499 0 0
40.6499 0 0
40.7461 0 0
40.7461 0 0
40.8423 0 0
40.8423 0 0
40.9385 0 0
40.9385 0 0
41.0347 0 0
41.0347 0 0
41.1309 0 0
41.1309 0 0
41.2271 0 0
41.2271 0 0
[...]
POINT_DATA 2048
SCALARS solution_0 double 1
LOOKUP_TABLE default
0.0821317 0.0885971 0.0885971 0.094925 0.094925 0.10119 0.10119 0.107449 0.107449 0.113747 0.113747 0.12012 0.12012 0.126597 0.126597 0.133201 0.133201 0.139953 0.139953 0.146869 0.146869 0.153964 0.153964 0.161249 0.161249 0.168736 0.168736 0.176433 0.176433 0.184348 0.184348 0.192488 0.192488 0.200859 0.200859 0.209465 0.209465 0.218312 0.218312 0.227403 0.227403 0.23674 0.23674 0.246326 0.246326 0.256164 0.256164 0.266253 0.266253 0.276595 0.276595 0.28719 0.28719 0.298037 0.298037 0.309136 0.309136 0.320486 0.320486 0.332084 0.332084 0.343927 0.343927 0.356015 0.356015 0.368341 0.368341 0.380904 0.380904 0.393698 0.393698 0.406719 0.406719 0.419961 0.419961 0.433419 0.433419 0.447085 0.447085 0.460953 0.460953 0.475015 0.475015 0.489263 0.489263 0.50369 0.50369 0.518285 0.518285 0.533039 0.533039 0.547942 0.547942 0.562984 0.562984 0.578153 0.578153 0.593439 0.593439 0.608827 0.608827 0.624307 0.624307 0.639865 0.639865 0.655487 0.655487 0.671159 0.671159 0.686867 0.686867 0.702596 0.702596 0.71833 0.71833 0.734054 0.734054 0.749751 0.749751 0.765404 0.765404 0.780996 0.780996 0.796511 0.796511 0.811929 0.811929 0.827234 0.827234 0.842406 0.842406 0.857427 0.857427 0.872277 0.872277 0.886938 0.886938 0.90139 0.90139 0.915613 0.915613 0.929587 0.929587 0.943293 0.943293 0.956709 0.956709 0.969816 0.969816 0.982594 0.982594 0.995022 0.995022 1.00708 1.00708 1.01874 1.01874 1.03 1.03 1.04082 1.04082 1.0512 1.0512 1.0611 1.0611 1.0705 1.0705 1.0794 1.0794 1.08777 1.08777 1.09559 1.09559 1.10284 1.10284 1.1095 1.1095 1.11555 1.11555 1.12099 1.12099 1.12578 1.12578 1.12992 1.12992 1.13338 1.13338 1.13616 1.13616 1.13823 1.13823 1.13958 1.13958 1.14021 1.14021 1.14008 1.14008 1.1392 1.1392 1.13754 1.13754 1.13511 1.13511 1.13188 1.13188 1.12786 1.12786 1.12302 1.12302 1.11736 1.11736 1.11088 1.11088 1.10357 1.10357 1.09542 1.09542 1.08644 1.08644 1.07661 1.07661 1.06593 1.06593 1.05441 1.05441 1.04203 1.04203 1.02881 1.02881 1.01475 1.01475 0.99984 0.99984 0.984093 0.984093 0.967511 0.967511 0.950101 0.950101 0.931868 0.931868 0.912821 0.912821 0.892969 0.892969 0.872321 0.872321 0.850888 0.850888 0.828682 0.828682 0.805717 0.805717 0.782005 0.782005 0.757563 0.757563 0.732405 0.732405 0.706548 0.706548 0.680011 0.680011 0.652812 0.652812 0.62497 0.62497 0.596506 0.596506 0.567441 0.567441 0.537797 0.537797 0.507598 0.507598 0.476866 0.476866 0.445626 0.445626 0.413903 0.413903 0.381723 0.381723 0.349111 0.349111 0.316097 0.316097 0.282705 0.282705 0.248966 0.248966 0.214906 0.214906 0.180556 0.180556 0.145944 0.145944 0.111101 0.111101 0.0760554 0.0760554 0.0408389 0.0408389 0.00548178 0.00548178 -0.0299853 -0.0299853 -0.0655313 -0.0655313 -0.101125 -0.101125 -0.136736 -0.136736 -0.172333 -0.172333 -0.207884 -0.207884 -0.243358 -0.243358 -0.278725 -0.278725 -0.313954 -0.313954 -0.349014 -0.349014 -0.383875 -0.383875 -0.418506 -0.418506 -0.452879 -0.452879 -0.486963 -0.486963 -0.52073 -0.52073 -0.55415 -0.55415 -0.587197 -0.587197 -0.619842 -0.619842 -0.652058 -0.652058 -0.683819 -0.683819 -0.715099 -0.715099 -0.745873 -0.745873 -0.776117 -0.776117 -0.805807 -0.805807 -0.834919 -0.834919 -0.863431 -0.863431 -0.891323 -0.891323 -0.918573 -0.918573 -0.945162 -0.945162 -0.971071 -0.971071 -0.996282 -0.996282 -1.02078 -1.02078 -1.04454 -1.04454 -1.06756 -1.06756 -1.08981 -1.08981 -1.1113 -1.1113 -1.13199 -1.13199 -1.15189 -1.15189 -1.17098 -1.17098 -1.18925 -1.18925 -1.2067 -1.2067 -1.22331 -1.22331 -1.23908 -1.23908 -1.25401 -1.25401 -1.26809 -1.26809 -1.28131 -1.28131 -1.29368 -1.29368 -1.30519 -1.30519 -1.31585 -1.31585 -1.32565 -1.32565 -1.33459 -1.33459 -1.34268 -1.34268 -1.34993 -1.34993 -1.35632 -1.35632 -1.36188 -1.36188 -1.3666 -1.3666 -1.37049 -1.37049 -1.37357 -1.37357 -1.37583 -1.37583 -1.37729 -1.37729 -1.37796 -1.37796 -1.37785 -1.37785 -1.37697 -1.37697 -1.37533 -1.37533 -1.37294 -1.37294 -1.36982 -1.36982 -1.36599 -1.36599 -1.36145 -1.36145 -1.35622 -1.35622 -1.35032 -1.35032 -1.34376 -1.34376 -1.33657 -1.33657 -1.32874 -1.32874 -1.32032 -1.32032 -1.3113 -1.3113 -1.30172 -1.30172 -1.29158 -1.29158 -1.28091 -1.28091 -1.26972 -1.26972 -1.25804 -1.25804 -1.24588 -1.24588 -1.23327 -1.23327 -1.22021 -1.22021 -1.20674 -1.20674 -1.19287 -1.19287 -1.17862 -1.17862 -1.16402 -1.16402 -1.14907 -1.14907 -1.1338 -1.1338 -1.11824 -1.11824 -1.10239 -1.10239 -1.08628 -1.08628 -1.06993 -1.06993 -1.05335 -1.05335 -1.03657 -1.03657 -1.0196 -1.0196 -1.00247 -1.00247 -0.985187 -0.985187 -0.967772 -0.967772 -0.950244 -0.950244 -0.932619 -0.932619 -0.914914 -0.914914 -0.897146 -0.897146 -0.879332 -0.879332 -0.861486 -0.861486 -0.843626 -0.843626 -0.825765 -0.825765 -0.80792 -0.80792 -0.790103 -0.790103 -0.77233 -0.77233 -0.754613 -0.754613 -0.736967 -0.736967 -0.719403 -0.719403 -0.701934 -0.701934 -0.684572 -0.684572 -0.667328 -0.667328 -0.650213 -0.650213 -0.633237 -0.633237 -0.616412 -0.616412 -0.599745 -0.599745 -0.583247 -0.583247 -0.566926 -0.566926 -0.55079 -0.55079 -0.534848 -0.534848 -0.519105 -0.519105 -0.50357 -0.50357 -0.488249 -0.488249 -0.473148 -0.473148 -0.458273 -0.458273 -0.443628 -0.443628 -0.429218 -0.429218 -0.415049 -0.415049 -0.401123 -0.401123 -0.387445 -0.387445 -0.374017 -0.374017 -0.360843 -0.360843 -0.347924 -0.347924 -0.335264 -0.335264 -0.322864 -0.322864 -0.310724 -0.310724 -0.298847 -0.298847 -0.287233 -0.287233 -0.275882 -0.275882 -0.264795 -0.264795 -0.253972 -0.253972 -0.243411 -0.243411 -0.233113 -0.233113 -0.223076 -0.223076 -0.213299 -0.213299 -0.203781 -0.203781 -0.19452 -0.19452 -0.185514 -0.185514 -0.176761 -0.176761 -0.168258 -0.168258 -0.160004 -0.160004 -0.151996 -0.151996 -0.14423 -0.14423 -0.136704 -0.136704 -0.129414 -0.129414 -0.122358 -0.122358 -0.115532 -0.115532 -0.108933 -0.108933 -0.102556 -0.102556 -0.0963987 -0.0963987 -0.0904565 -0.0904565 -0.0847257 -0.0847257 -0.0792024 -0.0792024 -0.0738825 -0.0738825 -0.0687621 -0.0687621 -0.0638368 -0.0638368 -0.0591027 -0.0591027 -0.0545554 -0.0545554 -0.0501907 -0.0501907 -0.0460043 -0.0460043 -0.0419921 -0.0419921 -0.0381497 -0.0381497 -0.0344728 -0.0344728 -0.0309572 -0.0309572 -0.0275986 -0.0275986 -0.0243927 -0.0243927 -0.0213353 -0.0213353 -0.0184222 -0.0184222 -0.0156493 -0.0156493 -0.0130123 -0.0130123 -0.0105072 -0.0105072 -0.00812993 -0.00812993 -0.00587644 -0.00587644 -0.00374276 -0.00374276 -0.00172498 -0.00172498 0.000180774 0.000180774 0.0019783 0.0019783 0.00367136 0.00367136 0.00526364 0.00526364 0.00675875 0.00675875 0.00816027 0.00816027 0.00947167 0.00947167 0.0106964 0.0106964 0.0118378 0.0118378 0.0128991 0.0128991 0.0138835 0.0138835 0.0147943 0.0147943 0.0156344 0.0156344 0.0164068 0.0164068 0.0171145 0.0171145 0.0177603 0.0177603 0.0183469 0.0183469 0.018877 0.018877 0.0193533 0.0193533 0.0197782 0.0197782 0.0201543 0.0201543 0.0204839 0.0204839 0.0207693 0.0207693 0.0210129 0.0210129 0.0212166 0.0212166 0.0213828 0.0213828 0.0215133 0.0215133 0.0216102 0.0216102 0.0216752 0.0216752 0.0217104 0.0217104 0.0217173 0.0217173 0.0216978 0.0216978 0.0216534 0.0216534 0.0215857 0.0215857 0.0214962 0.0214962 0.0213863 0.0213863 0.0212574 0.0212574 0.021111 0.021111 0.0209481 0.0209481 0.0207701 0.0207701 0.0205781 0.0205781 0.0203731 0.0203731 0.0201564 0.0201564 0.0199289 0.0199289 0.0196915 0.0196915 0.0194452 0.0194452 0.0191908 0.0191908 0.0189292 0.0189292 0.0186611 0.0186611 0.0183874 0.0183874 0.0181086 0.0181086 0.0178255 0.0178255 0.0175387 0.0175387 0.0172489 0.0172489 0.0169564 0.0169564 0.016662 0.016662 0.0163661 0.0163661 0.0160691 0.0160691 0.0157715 0.0157715 0.0154737 0.0154737 0.0151761 0.0151761 0.014879 0.014879 0.0145828 0.0145828 0.0142878 0.0142878 0.0139943 0.0139943 0.0137024 0.0137024 0.0134126 0.0134126 0.0131249 0.0131249 0.0128397 0.0128397 0.012557 0.012557 0.0122772 0.0122772 0.0120002 0.0120002 0.0117263 0.0117263 0.0114555 0.0114555 0.0111881 0.0111881 0.0109241 0.0109241 0.0106635 0.0106635 0.0104065 0.0104065 0.0101532 0.0101532 0.00990347 0.00990347 0.00965751 0.00965751 0.0094153 0.0094153 0.00917688 0.00917688 0.00894227 0.00894227 0.00871149 0.00871149 0.00848453 0.00848453 0.0082614 0.0082614 0.00804209 0.00804209 0.0078266 0.0078266 0.0076149 0.0076149 0.00740697 0.00740697 0.00720279 0.00720279 0.00700234 0.00700234 0.00680557 0.00680557 0.00661245 0.00661245 0.00642294 0.00642294 0.00623701 0.00623701 0.00605461 0.00605461 0.00587568 0.00587568 0.00570019 0.00570019 0.00552809 0.00552809 0.00535932 0.00535932 0.00519383 0.00519383 0.00503157 0.00503157 0.00487249 0.00487249 0.00471653 0.00471653 0.00456363 0.00456363 0.00441374 0.00441374 0.00426681 0.00426681 0.00412277 0.00412277 0.00398158 0.00398158 0.00384317 0.00384317 0.00370749 0.00370749 0.00357449 0.00357449 0.00344411 0.00344411 0.00331629 0.00331629 0.00319098 0.00319098 0.00306813 0.00306813 0.00294768 0.00294768 0.00282959 0.00282959 0.00271379 0.00271379 0.00260024 0.00260024 0.00248889 0.00248889 0.00237969 0.00237969 0.00227259 0.00227259 0.00216754 0.00216754 0.0020645 0.0020645 0.00196342 0.00196342 0.00186425 0.00186425 0.00176695 0.00176695 0.00167148 0.00167148 0.0015778 0.0015778 0.00148586 0.00148586 0.00139562 0.00139562 0.00130705 0.00130705 0.00122011 0.00122011 0.00113475 0.00113475 0.00105094 0.00105094 0.000968656 0.000968656 0.000887849 0.000887849 0.000808489 0.000808489 0.000730544 0.000730544 0.000653982 0.000653982 0.00057877 0.00057877 0.00050488 0.00050488 0.000432281 0.000432281 0.000360945 0.000360945 0.000290843 0.000290843 0.000221949 0.000221949 0.000154236 0.000154236 8.76783e-05 8.76783e-05 2.22514e-05 2.22514e-05 -4.20689e-05 -4.20689e-05 -0.000105306 -0.000105306 -0.000167483 -0.000167483 -0.000228622 -0.000228622 -0.000288744 -0.000288744 -0.00034787 -0.00034787 -0.00040602 -0.00040602 -0.000463213 -0.000463213 -0.00051947 -0.00051947 -0.000574807 -0.000574807 -0.000629243 -0.000629243 -0.000682795 -0.000682795 -0.00073548 -0.00073548 -0.000787314 -0.000787314 -0.000838313 -0.000838313 -0.000888492 -0.000888492 -0.000937866 -0.000937866 -0.000986449 -0.000986449 -0.00103426 -0.00103426 -0.0010813 -0.0010813 -0.00112759 -0.00112759 -0.00117315 -0.00117315 -0.00121798 -0.00121798 -0.00126209 -0.00126209 -0.0013055 -0.0013055 -0.00134823 -0.00134823 -0.00139027 -0.00139027 -0.00143165 -0.00143165 -0.00147236 -0.00147236 -0.00151243 -0.00151243 -0.00155185 -0.00155185 -0.00159065 -0.00159065 -0.00162882 -0.00162882 -0.00166638 -0.00166638 -0.00170334 -0.00170334 -0.00173971 -0.00173971 -0.00177548 -0.00177548 -0.00181068 -0.00181068 -0.0018453 -0.0018453 -0.00187936 -0.00187936 -0.00191287 -0.00191287 -0.00194582 -0.00194582 -0.00197823 -0.00197823 -0.00201011 -0.00201011 -0.00204145 -0.00204145 -0.00207227 -0.00207227 -0.00210258 -0.00210258 -0.00213237 -0.00213237 -0.00216166 -0.00216166 -0.00219045 -0.00219045 -0.00221875 -0.00221875 -0.00224655 -0.00224655 -0.00227388 -0.00227388 -0.00230073 -0.00230073 -0.00232711 -0.00232711 -0.00235302 -0.00235302 -0.00237847 -0.00237847 -0.00240347 -0.00240347 -0.00242802 -0.00242802 -0.00245212 -0.00245212 -0.00247577 -0.00247577 -0.00249899 -0.00249899 -0.00252178 -0.00252178 -0.00254415 -0.00254415 -0.00256608 -0.00256608 -0.0025876 -0.0025876 -0.00260871 -0.00260871 -0.00262941 -0.00262941 -0.0026497 -0.0026497 -0.00266958 -0.00266958 -0.00268907 -0.00268907 -0.00270817 -0.00270817 -0.00272687 -0.00272687 -0.00274519 -0.00274519 -0.00276312 -0.00276312 -0.00278067 -0.00278067 -0.00279785 -0.00279785 -0.00281464 -0.00281464 -0.00283107 -0.00283107 -0.00284713 -0.00284713 -0.00286281 -0.00286281 -0.00287813 -0.00287813 -0.00289309 -0.00289309 -0.00290768 -0.00290768 -0.00292191 -0.00292191 -0.00293577 -0.00293577 -0.00294927 -0.00294927 -0.00296241 -0.00296241 -0.00297519 -0.00297519 -0.0029876 -0.0029876 -0.00299964 -0.00299964 -0.00301131 -0.00301131 -0.00302261 -0.00302261 -0.00303354 -0.00303354 -0.00304408 -0.00304408 -0.00305424 -0.00305424 -0.003064 -0.003064 -0.00307337 -0.00307337 -0.00308233 -0.00308233 -0.00309089 -0.00309089 -0.00309901 -0.00309901 -0.00310671 -0.00310671 -0.00311397 -0.00311397 -0.00312077 -0.00312077 -0.00312711 -0.00312711 -0.00313296 -0.00313296 -0.00313833 -0.00313833 -0.00314318 -0.00314318 -0.00314751 -0.00314751 -0.0031513 -0.0031513 -0.00315453 -0.00315453 -0.00315718 -0.00315718 -0.00315923 -0.00315923 -0.00316066 -0.00316066 -0.00316144 -0.00316144 -0.00316156 -0.00316156 -0.00316099 -0.00316099 -0.00315971 -0.00315971 -0.00315769 -0.00315769 -0.00315489 -0.00315489 -0.00315131 -0.00315131 -0.00314691 -0.00314691 -0.00314165 -0.00314165 -0.00313552 -0.00313552 -0.00312848 -0.00312848 -0.0031205 -0.0031205 -0.00311155 -0.00311155 -0.0031016 -0.0031016 -0.00309063 -0.00309063 -0.00307859 -0.00307859 -0.00306547 -0.00306547 -0.00305122 -0.00305122 -0.00303583 -0.00303583 -0.00301925 -0.00301925 -0.00300146 -0.00300146 -0.00298244 -0.00298244 -0.00296215 -0.00296215 -0.00294057 -0.00294057 -0.00291766 -0.00291766 -0.00289342 -0.00289342 -0.00286781 -0.00286781 -0.0028408 -0.0028408 -0.00281239 -0.00281239 -0.00278255 -0.00278255 -0.00275126 -0.00275126 -0.00271851 -0.00271851 -0.00268428 -0.00268428 -0.00264856 -0.00264856 -0.00261135 -0.00261135 -0.00257263 -0.00257263 -0.0025324 -0.0025324 -0.00249067 -0.00249067 -0.00244742 -0.00244742 -0.00240266 -0.00240266 -0.00235641 -0.00235641 -0.00230866 -0.00230866 -0.00225942 -0.00225942 -0.00220872 -0.00220872 -0.00215657 -0.00215657 -0.00210299 -0.00210299 -0.00204799 -0.00204799 -0.00199162 -0.00199162 -0.00193389 -0.00193389 -0.00187484 -0.00187484 -0.0018145 -0.0018145 -0.00175291 -0.00175291 -0.00169011 -0.00169011 -0.00162614 -0.00162614 -0.00156105 -0.00156105 -0.00149488 -0.00149488 -0.00142769 -0.00142769 -0.00135953 -0.00135953 -0.00129046 -0.00129046 -0.00122053 -0.00122053 -0.0011498 -0.0011498 -0.00107834 -0.00107834 -0.0010062 -0.0010062 -0.000933461 -0.000933461 -0.000860182 -0.000860182 -0.000786433 -0.000786433 -0.000712284 -0.000712284 -0.000637806 -0.000637806 -0.00056307 -0.00056307 -0.000488151 -0.000488151 -0.000413121 -0.000413121 -0.000338054 -0.000338054 -0.000263026 -0.000263026 -0.000188111 -0.000188111 -0.000113383 -0.000113383 -3.89172e-05 -3.89172e-05 3.52116e-05 3.52116e-05 0.00010893 0.00010893 0.000182163 0.000182163 0.00025484 0.00025484 0.000326888 0.000326888 0.000398236 0.000398236 0.000468813 0.000468813 0.000538553 0.000538553 0.000607386 0.000607386 0.000675247 0.000675247 0.000742072 0.000742072 0.000807797 0.000807797 0.000872361 0.000872361 0.000935706 0.000935706 0.000997773 0.000997773 0.00105851 0.00105851 0.00111785 0.00111785 0.00117576 0.00117576 0.00123217 0.00123217 0.00128705 0.00128705 0.00134035 0.00134035 0.00139202 0.00139202 0.00144202 0.00144202 0.0014903 0.0014903 0.00153684 0.00153684 0.0015816 0.0015816 0.00162454 0.00162454 0.00166562 0.00166562 0.00170483 0.00170483 0.00174212 0.00174212 0.00177747 0.00177747 0.00181086 0.00181086 0.00184226 0.00184226 0.00187164 0.00187164 0.001899 0.001899 0.00192429 0.00192429 0.00194752 0.00194752 0.00196865 0.00196865 0.00198768 0.00198768 0.00200458 0.00200458 0.00201934 0.00201934 0.00203194 0.00203194 0.00204238 0.00204238 0.00205064 0.00205064 0.0020567 0.0020567 0.00206056 0.00206056 0.0020622 0.0020622 0.00206161 0.00206161 0.00205878 0.00205878 0.00205371 0.00205371 0.00204637 0.00204637 0.00203677 0.00203677 0.00202488 0.00202488 0.0020107 0.0020107 0.00199423 0.00199423 0.00197544 0.00197544 0.00195434 0.00195434 0.00193091 0.00193091 0.00190514 0.00190514 0.00187703 0.00187703 0.00184656 0.00184656 0.00181372 0.00181372 0.00177852 0.00177852 0.00174093 0.00174093 0.00170095 0.00170095 0.00165858 0.00165858 0.00161381 0.00161381 0.00156662 0.00156662 0.00151701 0.00151701 0.00146499 0.00146499 0.00141054 0.00141054 0.00135365 0.00135365 0.00129434 0.00129434 0.00123258 0.00123258 0.00116839 0.00116839 0.00110176 0.00110176 0.0010327 0.0010327 0.000961203 0.000961203 0.000887277 0.000887277 0.000810926 0.000810926 0.000732159 0.000732159 0.000650985 0.000650985 0.000567413 0.000567413 0.000481457 0.000481457 0.000393132 0.000393132 0.000302453 0.000302453 0.000209441 0.000209441 0.000114115 0.000114115 1.64995e-05 1.64995e-05 -8.33798e-05 -8.33798e-05 -0.000185495 -0.000185495 -0.000289814 -0.000289814 -0.000396306 -0.000396306 -0.000504932 -0.000504932 -0.000615656 -0.000615656 -0.000728436 -0.000728436 -0.000843226 -0.000843226 -0.000959982 -0.000959982 -0.00107865 -0.00107865 -0.00119918 -0.00119918 -0.00132152 -0.00132152 -0.00144561 -0.00144561 -0.00157139 -0.00157139 -0.00169879 -0.00169879 -0.00182775 -0.00182775 -0.00195819 -0.00195819 -0.00209005 -0.00209005 -0.00222326 -0.00222326 -0.00235772 -0.00235772 -0.00249337 -0.00249337 -0.00263012 -0.00263012 -0.00276789 -0.00276789 -0.00290658 -0.00290658 -0.00304612 -0.00304612 -0.0031864 -0.0031864 -0.00332733 -0.00332733 -0.00346881 -0.00346881 -0.00361075 -0.00361075 -0.00375305 -0.00375305 -0.00389561 -0.00389561 -0.00403831 -0.00403831 -0.00418106 -0.00418106 -0.00432375 -0.00432375 -0.00446626 -0.00446626 -0.0046085 -0.0046085 -0.00475035 -0.00475035 -0.0048917 -0.0048917 -0.00503244 -0.00503244 -0.00517246 -0.00517246 -0.00531163 -0.00531163 -0.00544986 -0.00544986 -0.00558702 -0.00558702 -0.005723 -0.005723 -0.00585769 -0.00585769 -0.00599097 -0.00599097 -0.00612273 -0.00612273 -0.00625286 -0.00625286 -0.00638125 -0.00638125 -0.00650778 -0.00650778 -0.00663235 -0.00663235 -0.00675485 -0.00675485 -0.00687516 -0.00687516 -0.00699318 -0.00699318 -0.00710881 -0.00710881 -0.00722195 -0.00722195 -0.00733248 -0.00733248 -0.00744032 -0.00744032 -0.00754536 -0.00754536 -0.0076475 -0.0076475 -0.00774667 -0.00774667 -0.00784275 -0.00784275 -0.00793568 -0.00793568 -0.00802535 -0.00802535 -0.00811169 -0.00811169 -0.00819461 -0.00819461 -0.00827404 -0.00827404 -0.00834991 -0.00834991 -0.00842214 -0.00842214 -0.00849066 -0.00849066 -0.00855542 -0.00855542 -0.00861634 -0.00861634 -0.00867337 -0.00867337 -0.00872646 -0.00872646 -0.00877555 -0.00877555 -0.00882059 -0.00882059 -0.00886154 -0.00886154 -0.00889837 -0.00889837 -0.00893102 -0.00893102 -0.00895948 -0.00895948 -0.0089837 -0.0089837 -0.00900367 -0.00900367 -0.00901936 -0.00901936 -0.00903074 -0.00903074 -0.00903782 -0.00903782 -0.00904057 -0.00904057 -0.00903899 -0.00903899 -0.00903307 -0.00903307 -0.00902281 -0.00902281 -0.00900822 -0.00900822 -0.0089893 -0.0089893 -0.00896606 -0.00896606 -0.00893851 -0.00893851 -0.00890668 -0.00890668 -0.00887059 -0.00887059 -0.00883024 -0.00883024 -0.00878568 -0.00878568 -0.00873694 -0.00873694 -0.00868404 -0.00868404 -0.00862702 -0.00862702 -0.00856592 -0.00856592 -0.00850078 -0.00850078 -0.00843165 -0.00843165 -0.00835857 -0.00835857 -0.00828159 -0.00828159 -0.00820077 -0.00820077 -0.00811616 -0.00811616 -0.00802781 -0.00802781 -0.00793578 -0.00793578 -0.00784014 -0.00784014 -0.00774094 -0.00774094 -0.00763825 -0.00763825 -0.00753214 -0.00753214 -0.00742267 -0.00742267 -0.00730991 -0.00730991 -0.00719394 -0.00719394 -0.00707481 -0.00707481 -0.00695261 -0.00695261 -0.0068274 -0.0068274 -0.00669927 -0.00669927 -0.00656828 -0.00656828 -0.00643451 -0.00643451 -0.00629804 -0.00629804 -0.00615893 -0.00615893 -0.00601727 -0.00601727 -0.00587314 -0.00587314 -0.0057266 -0.0057266 -0.00557773 -0.00557773 -0.00542661 -0.00542661 -0.00527332 -0.00527332 -0.00511792 -0.00511792 -0.00496049 -0.00496049 -0.0048011 -0.0048011 -0.00463983 -0.00463983 -0.00447674 -0.00447674 -0.00431191 -0.00431191 -0.0041454 -0.0041454 -0.00397727 -0.00397727 -0.00380761 -0.00380761 -0.00363646 -0.00363646 -0.0034639 -0.0034639 -0.00328998 -0.00328998 -0.00311476 -0.00311476 -0.00293829 -0.00293829 -0.00276065 -0.00276065 -0.00258187 -0.00258187 -0.002402 -0.002402 -0.0022211 -0.0022211 -0.00203922 -0.00203922 -0.00185639 -0.00185639 -0.00167266 -0.00167266 -0.00148807 -0.00148807 -0.00130265 -0.00130265 -0.00111644 -0.00111644 -0.000929464 -0.000929464 -0.00074176 -0.00074176 -0.000553349 -0.000553349 -0.000364255 -0.000364255 -0.000174498 -0.000174498 1.59053e-05 1.59053e-05 0