# vtk DataFile Version 3.0
#This file was generated by the deal.II library on 2020/9/1 at 14:41:56
ASCII
DATASET UNSTRUCTURED_GRID

POINTS 2048 double
1.5 0 0
1.59619 0 0
1.59619 0 0
1.69238 0 0
1.69238 0 0
1.78857 0 0
1.78857 0 0
1.88477 0 0
1.88477 0 0
1.98096 0 0
1.98096 0 0
2.07715 0 0
2.07715 0 0
2.17334 0 0
2.17334 0 0
2.26953 0 0
2.26953 0 0
2.36572 0 0
2.36572 0 0
2.46191 0 0
2.46191 0 0
2.55811 0 0
2.55811 0 0
2.6543 0 0
2.6543 0 0
2.75049 0 0
2.75049 0 0
2.84668 0 0
2.84668 0 0
2.94287 0 0
2.94287 0 0
3.03906 0 0
3.03906 0 0
3.13525 0 0
3.13525 0 0
3.23145 0 0
3.23145 0 0
3.32764 0 0
3.32764 0 0
3.42383 0 0
3.42383 0 0
3.52002 0 0
3.52002 0 0
3.61621 0 0
3.61621 0 0
3.7124 0 0
3.7124 0 0
3.80859 0 0
3.80859 0 0
3.90479 0 0
3.90479 0 0
4.00098 0 0
4.00098 0 0
4.09717 0 0
4.09717 0 0
4.19336 0 0
4.19336 0 0
4.28955 0 0
4.28955 0 0
4.38574 0 0
4.38574 0 0
4.48193 0 0
4.48193 0 0
4.57812 0 0
4.57812 0 0
4.67432 0 0
4.67432 0 0
4.77051 0 0
4.77051 0 0
4.8667 0 0
4.8667 0 0
4.96289 0 0
4.96289 0 0
5.05908 0 0
5.05908 0 0
5.15527 0 0
5.15527 0 0
5.25146 0 0
5.25146 0 0
5.34766 0 0
5.34766 0 0
5.44385 0 0
5.44385 0 0
5.54004 0 0
5.54004 0 0
5.63623 0 0
5.63623 0 0
5.73242 0 0
5.73242 0 0
5.82861 0 0
5.82861 0 0
5.9248 0 0
5.9248 0 0
6.021 0 0
6.021 0 0
6.11719 0 0
6.11719 0 0
6.21338 0 0
6.21338 0 0
6.30957 0 0
6.30957 0 0
6.40576 0 0
6.40576 0 0
6.50195 0 0
6.50195 0 0
6.59814 0 0
6.59814 0 0
6.69434 0 0
6.69434 0 0
6.79053 0 0
6.79053 0 0
6.88672 0 0
6.88672 0 0
6.98291 0 0
6.98291 0 0
7.0791 0 0
7.0791 0 0
7.17529 0 0
7.17529 0 0
7.27148 0 0
7.27148 0 0
7.36768 0 0
7.36768 0 0
7.46387 0 0
7.46387 0 0
7.56006 0 0
7.56006 0 0
7.65625 0 0
7.65625 0 0
7.75244 0 0
7.75244 0 0
7.84863 0 0
7.84863 0 0
7.94482 0 0
7.94482 0 0
8.04102 0 0
8.04102 0 0
8.13721 0 0
8.13721 0 0
8.2334 0 0
8.2334 0 0
8.32959 0 0
8.32959 0 0
8.42578 0 0
8.42578 0 0
8.52197 0 0
8.52197 0 0
8.61816 0 0
8.61816 0 0
8.71436 0 0
8.71436 0 0
8.81055 0 0
8.81055 0 0
8.90674 0 0
8.90674 0 0
9.00293 0 0
9.00293 0 0
9.09912 0 0
9.09912 0 0
9.19531 0 0
9.19531 0 0
9.2915 0 0
9.2915 0 0
9.3877 0 0
9.3877 0 0
9.48389 0 0
9.48389 0 0
9.58008 0 0
9.58008 0 0
9.67627 0 0
9.67627 0 0
9.77246 0 0
9.77246 0 0
9.86865 0 0
9.86865 0 0
9.96484 0 0
9.96484 0 0
10.061 0 0
10.061 0 0
10.1572 0 0
10.1572 0 0
10.2534 0 0
10.2534 0 0
10.3496 0 0
10.3496 0 0
10.4458 0 0
10.4458 0 0
10.542 0 0
10.542 0 0
10.6382 0 0
10.6382 0 0
10.7344 0 0
10.7344 0 0
10.8306 0 0
10.8306 0 0
10.9268 0 0
10.9268 0 0
11.0229 0 0
11.0229 0 0
11.1191 0 0
11.1191 0 0
11.2153 0 0
11.2153 0 0
11.3115 0 0
11.3115 0 0
11.4077 0 0
11.4077 0 0
11.5039 0 0
11.5039 0 0
11.6001 0 0
11.6001 0 0
11.6963 0 0
11.6963 0 0
11.7925 0 0
11.7925 0 0
11.8887 0 0
11.8887 0 0
11.9849 0 0
11.9849 0 0
12.0811 0 0
12.0811 0 0
12.1772 0 0
12.1772 0 0
12.2734 0 0
12.2734 0 0
12.3696 0 0
12.3696 0 0
12.4658 0 0
12.4658 0 0
12.562 0 0
12.562 0 0
12.6582 0 0
12.6582 0 0
12.7544 0 0
12.7544 0 0
12.8506 0 0
12.8506 0 0
12.9468 0 0
12.9468 0 0
13.043 0 0
13.043 0 0
13.1392 0 0
13.1392 0 0
13.2354 0 0
13.2354 0 0
13.3315 0 0
13.3315 0 0
13.4277 0 0
13.4277 0 0
13.5239 0 0
13.5239 0 0
13.6201 0 0
13.6201 0 0
13.7163 0 0
13.7163 0 0
13.8125 0 0
13.8125 0 0
13.9087 0 0
13.9087 0 0
14.0049 0 0
14.0049 0 0
14.1011 0 0
14.1011 0 0
14.1973 0 0
14.1973 0 0
14.2935 0 0
14.2935 0 0
14.3896 0 0
14.3896 0 0
14.4858 0 0
14.4858 0 0
14.582 0 0
14.582 0 0
14.6782 0 0
14.6782 0 0
14.7744 0 0
14.7744 0 0
14.8706 0 0
14.8706 0 0
14.9668 0 0
14.9668 0 0
15.063 0 0
15.063 0 0
15.1592 0 0
15.1592 0 0
15.2554 0 0
15.2554 0 0
15.3516 0 0
15.3516 0 0
15.4478 0 0
15.4478 0 0
15.5439 0 0
15.5439 0 0
15.6401 0 0
15.6401 0 0
15.7363 0 0
15.7363 0 0
15.8325 0 0
15.8325 0 0
15.9287 0 0
15.9287 0 0
16.0249 0 0
16.0249 0 0
16.1211 0 0
16.1211 0 0
16.2173 0 0
16.2173 0 0
16.3135 0 0
16.3135 0 0
16.4097 0 0
16.4097 0 0
16.5059 0 0
16.5059 0 0
16.6021 0 0
16.6021 0 0
16.6982 0 0
16.6982 0 0
16.7944 0 0
16.7944 0 0
16.8906 0 0
16.8906 0 0
16.9868 0 0
16.9868 0 0
17.083 0 0
17.083 0 0
17.1792 0 0
17.1792 0 0
17.2754 0 0
17.2754 0 0
17.3716 0 0
17.3716 0 0
17.4678 0 0
17.4678 0 0
17.564 0 0
17.564 0 0
17.6602 0 0
17.6602 0 0
17.7563 0 0
17.7563 0 0
17.8525 0 0
17.8525 0 0
17.9487 0 0
17.9487 0 0
18.0449 0 0
18.0449 0 0
18.1411 0 0
18.1411 0 0
18.2373 0 0
18.2373 0 0
18.3335 0 0
18.3335 0 0
18.4297 0 0
18.4297 0 0
18.5259 0 0
18.5259 0 0
18.6221 0 0
18.6221 0 0
18.7183 0 0
18.7183 0 0
18.8145 0 0
18.8145 0 0
18.9106 0 0
18.9106 0 0
19.0068 0 0
19.0068 0 0
19.103 0 0
19.103 0 0
19.1992 0 0
19.1992 0 0
19.2954 0 0
19.2954 0 0
19.3916 0 0
19.3916 0 0
19.4878 0 0
19.4878 0 0
19.584 0 0
19.584 0 0
19.6802 0 0
19.6802 0 0
19.7764 0 0
19.7764 0 0
19.8726 0 0
19.8726 0 0
19.9688 0 0
19.9688 0 0
20.0649 0 0
20.0649 0 0
20.1611 0 0
20.1611 0 0
20.2573 0 0
20.2573 0 0
20.3535 0 0
20.3535 0 0
20.4497 0 0
20.4497 0 0
20.5459 0 0
20.5459 0 0
20.6421 0 0
20.6421 0 0
20.7383 0 0
20.7383 0 0
20.8345 0 0
20.8345 0 0
20.9307 0 0
20.9307 0 0
21.0269 0 0
21.0269 0 0
21.123 0 0
21.123 0 0
21.2192 0 0
21.2192 0 0
21.3154 0 0
21.3154 0 0
21.4116 0 0
21.4116 0 0
21.5078 0 0
21.5078 0 0
21.604 0 0
21.604 0 0
21.7002 0 0
21.7002 0 0
21.7964 0 0
21.7964 0 0
21.8926 0 0
21.8926 0 0
21.9888 0 0
21.9888 0 0
22.085 0 0
22.085 0 0
22.1812 0 0
22.1812 0 0
22.2773 0 0
22.2773 0 0
22.3735 0 0
22.3735 0 0
22.4697 0 0
22.4697 0 0
22.5659 0 0
22.5659 0 0
22.6621 0 0
22.6621 0 0
22.7583 0 0
22.7583 0 0
22.8545 0 0
22.8545 0 0
22.9507 0 0
22.9507 0 0
23.0469 0 0
23.0469 0 0
23.1431 0 0
23.1431 0 0
23.2393 0 0
23.2393 0 0
23.3354 0 0
23.3354 0 0
23.4316 0 0
23.4316 0 0
23.5278 0 0
23.5278 0 0
23.624 0 0
23.624 0 0
23.7202 0 0
23.7202 0 0
23.8164 0 0
23.8164 0 0
23.9126 0 0
23.9126 0 0
24.0088 0 0
24.0088 0 0
24.105 0 0
24.105 0 0
24.2012 0 0
24.2012 0 0
24.2974 0 0
24.2974 0 0
24.3936 0 0
24.3936 0 0
24.4897 0 0
24.4897 0 0
24.5859 0 0
24.5859 0 0
24.6821 0 0
24.6821 0 0
24.7783 0 0
24.7783 0 0
24.8745 0 0
24.8745 0 0
24.9707 0 0
24.9707 0 0
25.0669 0 0
25.0669 0 0
25.1631 0 0
25.1631 0 0
25.2593 0 0
25.2593 0 0
25.3555 0 0
25.3555 0 0
25.4517 0 0
25.4517 0 0
25.5479 0 0
25.5479 0 0
25.644 0 0
25.644 0 0
25.7402 0 0
25.7402 0 0
25.8364 0 0
25.8364 0 0
25.9326 0 0
25.9326 0 0
26.0288 0 0
26.0288 0 0
26.125 0 0
26.125 0 0
26.2212 0 0
26.2212 0 0
26.3174 0 0
26.3174 0 0
26.4136 0 0
26.4136 0 0
26.5098 0 0
26.5098 0 0
26.606 0 0
26.606 0 0
26.7021 0 0
26.7021 0 0
26.7983 0 0
26.7983 0 0
26.8945 0 0
26.8945 0 0
26.9907 0 0
26.9907 0 0
27.0869 0 0
27.0869 0 0
27.1831 0 0
27.1831 0 0
27.2793 0 0
27.2793 0 0
27.3755 0 0
27.3755 0 0
27.4717 0 0
27.4717 0 0
27.5679 0 0
27.5679 0 0
27.6641 0 0
27.6641 0 0
27.7603 0 0
27.7603 0 0
27.8564 0 0
27.8564 0 0
27.9526 0 0
27.9526 0 0
28.0488 0 0
28.0488 0 0
28.145 0 0
28.145 0 0
28.2412 0 0
28.2412 0 0
28.3374 0 0
28.3374 0 0
28.4336 0 0
28.4336 0 0
28.5298 0 0
28.5298 0 0
28.626 0 0
28.626 0 0
28.7222 0 0
28.7222 0 0
28.8184 0 0
28.8184 0 0
28.9146 0 0
28.9146 0 0
29.0107 0 0
29.0107 0 0
29.1069 0 0
29.1069 0 0
29.2031 0 0
29.2031 0 0
29.2993 0 0
29.2993 0 0
29.3955 0 0
29.3955 0 0
29.4917 0 0
29.4917 0 0
29.5879 0 0
29.5879 0 0
29.6841 0 0
29.6841 0 0
29.7803 0 0
29.7803 0 0
29.8765 0 0
29.8765 0 0
29.9727 0 0
29.9727 0 0
30.0688 0 0
30.0688 0 0
30.165 0 0
30.165 0 0
30.2612 0 0
30.2612 0 0
30.3574 0 0
30.3574 0 0
30.4536 0 0
30.4536 0 0
30.5498 0 0
30.5498 0 0
30.646 0 0
30.646 0 0
30.7422 0 0
30.7422 0 0
30.8384 0 0
30.8384 0 0
30.9346 0 0
30.9346 0 0
31.0308 0 0
31.0308 0 0
31.127 0 0
31.127 0 0
31.2231 0 0
31.2231 0 0
31.3193 0 0
31.3193 0 0
31.4155 0 0
31.4155 0 0
31.5117 0 0
31.5117 0 0
31.6079 0 0
31.6079 0 0
31.7041 0 0
31.7041 0 0
31.8003 0 0
31.8003 0 0
31.8965 0 0
31.8965 0 0
31.9927 0 0
31.9927 0 0
32.0889 0 0
32.0889 0 0
32.1851 0 0
32.1851 0 0
32.2812 0 0
32.2812 0 0
32.3774 0 0
32.3774 0 0
32.4736 0 0
32.4736 0 0
32.5698 0 0
32.5698 0 0
32.666 0 0
32.666 0 0
32.7622 0 0
32.7622 0 0
32.8584 0 0
32.8584 0 0
32.9546 0 0
32.9546 0 0
33.0508 0 0
33.0508 0 0
33.147 0 0
33.147 0 0
33.2432 0 0
33.2432 0 0
33.3394 0 0
33.3394 0 0
33.4355 0 0
33.4355 0 0
33.5317 0 0
33.5317 0 0
33.6279 0 0
33.6279 0 0
33.7241 0 0
33.7241 0 0
33.8203 0 0
33.8203 0 0
33.9165 0 0
33.9165 0 0
34.0127 0 0
34.0127 0 0
34.1089 0 0
34.1089 0 0
34.2051 0 0
34.2051 0 0
34.3013 0 0
34.3013 0 0
34.3975 0 0
34.3975 0 0
34.4937 0 0
34.4937 0 0
34.5898 0 0
34.5898 0 0
34.686 0 0
34.686 0 0
34.7822 0 0
34.7822 0 0
34.8784 0 0
34.8784 0 0
34.9746 0 0
34.9746 0 0
35.0708 0 0
35.0708 0 0
35.167 0 0
35.167 0 0
35.2632 0 0
35.2632 0 0
35.3594 0 0
35.3594 0 0
35.4556 0 0
35.4556 0 0
35.5518 0 0
35.5518 0 0
35.6479 0 0
35.6479 0 0
35.7441 0 0
35.7441 0 0
35.8403 0 0
35.8403 0 0
35.9365 0 0
35.9365 0 0
36.0327 0 0
36.0327 0 0
36.1289 0 0
36.1289 0 0
36.2251 0 0
36.2251 0 0
36.3213 0 0
36.3213 0 0
36.4175 0 0
36.4175 0 0
36.5137 0 0
36.5137 0 0
36.6099 0 0
36.6099 0 0
36.7061 0 0
36.7061 0 0
36.8022 0 0
36.8022 0 0
36.8984 0 0
36.8984 0 0
36.9946 0 0
36.9946 0 0
37.0908 0 0
37.0908 0 0
37.187 0 0
37.187 0 0
37.2832 0 0
37.2832 0 0
37.3794 0 0
37.3794 0 0
37.4756 0 0
37.4756 0 0
37.5718 0 0
37.5718 0 0
37.668 0 0
37.668 0 0
37.7642 0 0
37.7642 0 0
37.8604 0 0
37.8604 0 0
37.9565 0 0
37.9565 0 0
38.0527 0 0
38.0527 0 0
38.1489 0 0
38.1489 0 0
38.2451 0 0
38.2451 0 0
38.3413 0 0
38.3413 0 0
38.4375 0 0
38.4375 0 0
38.5337 0 0
38.5337 0 0
38.6299 0 0
38.6299 0 0
38.7261 0 0
38.7261 0 0
38.8223 0 0
38.8223 0 0
38.9185 0 0
38.9185 0 0
39.0146 0 0
39.0146 0 0
39.1108 0 0
39.1108 0 0
39.207 0 0
39.207 0 0
39.3032 0 0
39.3032 0 0
39.3994 0 0
39.3994 0 0
39.4956 0 0
39.4956 0 0
39.5918 0 0
39.5918 0 0
39.688 0 0
39.688 0 0
39.7842 0 0
39.7842 0 0
39.8804 0 0
39.8804 0 0
39.9766 0 0
39.9766 0 0
40.0728 0 0
40.0728 0 0
40.1689 0 0
40.1689 0 0
40.2651 0 0
40.2651 0 0
40.3613 0 0
40.3613 0 0
40.4575 0 0
40.4575 0 0
40.5537 0 0
40.5537 0 0
40.6499 0 0
40.6499 0 0
40.7461 0 0
40.7461 0 0
40.8423 0 0
40.8423 0 0
40.9385 0 0
40.9385 0 0
41.0347 0 0
41.0347 0 0
41.1309 0 0
41.1309 0 0
41.2271 0 0
41.2271 0 0
[...]
POINT_DATA 2048
SCALARS solution_0 double 1
LOOKUP_TABLE default
0.656064 0.640646 0.640646 0.625963 0.625963 0.611945 0.611945 0.598532 0.598532 0.585671 0.585671 0.573318 0.573318 0.561433 0.561433 0.549982 0.549982 0.538935 0.538935 0.528266 0.528266 0.517952 0.517952 0.507971 0.507971 0.498305 0.498305 0.488938 0.488938 0.479855 0.479855 0.471042 0.471042 0.462487 0.462487 0.454178 0.454178 0.446105 0.446105 0.438259 0.438259 0.430629 0.430629 0.423208 0.423208 0.415989 0.415989 0.408963 0.408963 0.402123 0.402123 0.395465 0.395465 0.38898 0.38898 0.382663 0.382663 0.376509 0.376509 0.370513 0.370513 0.364668 0.364668 0.358972 0.358972 0.353418 0.353418 0.348002 0.348002 0.34272 0.34272 0.337568 0.337568 0.332543 0.332543 0.327639 0.327639 0.322853 0.322853 0.318182 0.318182 0.313623 0.313623 0.309171 0.309171 0.304823 0.304823 0.300577 0.300577 0.29643 0.29643 0.292377 0.292377 0.288416 0.288416 0.284545 0.284545 0.280761 0.280761 0.277061 0.277061 0.273441 0.273441 0.269901 0.269901 0.266437 0.266437 0.263046 0.263046 0.259727 0.259727 0.256477 0.256477 0.253294 0.253294 0.250176 0.250176 0.24712 0.24712 0.244124 0.244124 0.241187 0.241187 0.238306 0.238306 0.235479 0.235479 0.232706 0.232706 0.229982 0.229982 0.227308 0.227308 0.224681 0.224681 0.222099 0.222099 0.219562 0.219562 0.217066 0.217066 0.214611 0.214611 0.212195 0.212195 0.209817 0.209817 0.207475 0.207475 0.205168 0.205168 0.202894 0.202894 0.200652 0.200652 0.198441 0.198441 0.19626 0.19626 0.194106 0.194106 0.19198 0.19198 0.18988 0.18988 0.187805 0.187805 0.185754 0.185754 0.183725 0.183725 0.181718 0.181718 0.179732 0.179732 0.177766 0.177766 0.175819 0.175819 0.17389 0.17389 0.171978 0.171978 0.170082 0.170082 0.168202 0.168202 0.166337 0.166337 0.164486 0.164486 0.162649 0.162649 0.160824 0.160824 0.159011 0.159011 0.15721 0.15721 0.15542 0.15542 0.15364 0.15364 0.151871 0.151871 0.15011 0.15011 0.148359 0.148359 0.146615 0.146615 0.14488 0.14488 0.143153 0.143153 0.141433 0.141433 0.139719 0.139719 0.138012 0.138012 0.136312 0.136312 0.134617 0.134617 0.132928 0.132928 0.131245 0.131245 0.129566 0.129566 0.127893 0.127893 0.126225 0.126225 0.124561 0.124561 0.122902 0.122902 0.121247 0.121247 0.119597 0.119597 0.117951 0.117951 0.116309 0.116309 0.114671 0.114671 0.113038 0.113038 0.111408 0.111408 0.109783 0.109783 0.108162 0.108162 0.106545 0.106545 0.104932 0.104932 0.103324 0.103324 0.10172 0.10172 0.10012 0.10012 0.0985254 0.0985254 0.0969352 0.0969352 0.0953498 0.0953498 0.0937694 0.0937694 0.0921942 0.0921942 0.0906242 0.0906242 0.0890597 0.0890597 0.0875009 0.0875009 0.085948 0.085948 0.0844012 0.0844012 0.0828606 0.0828606 0.0813265 0.0813265 0.0797992 0.0797992 0.0782788 0.0782788 0.0767656 0.0767656 0.0752599 0.0752599 0.0737619 0.0737619 0.0722719 0.0722719 0.0707901 0.0707901 0.0693167 0.0693167 0.0678522 0.0678522 0.0663967 0.0663967 0.0649505 0.0649505 0.0635139 0.0635139 0.0620871 0.0620871 0.0606705 0.0606705 0.0592643 0.0592643 0.0578689 0.0578689 0.0564844 0.0564844 0.0551112 0.0551112 0.0537496 0.0537496 0.0523998 0.0523998 0.0510621 0.0510621 0.0497367 0.0497367 0.048424 0.048424 0.0471243 0.0471243 0.0458377 0.0458377 0.0445646 0.0445646 0.0433052 0.0433052 0.0420597 0.0420597 0.0408284 0.0408284 0.0396116 0.0396116 0.0384094 0.0384094 0.0372222 0.0372222 0.0360501 0.0360501 0.0348934 0.0348934 0.0337522 0.0337522 0.0326268 0.0326268 0.0315174 0.0315174 0.0304241 0.0304241 0.0293472 0.0293472 0.0282868 0.0282868 0.0272432 0.0272432 0.0262163 0.0262163 0.0252065 0.0252065 0.0242138 0.0242138 0.0232384 0.0232384 0.0222804 0.0222804 0.02134 0.02134 0.0204172 0.0204172 0.0195121 0.0195121 0.0186248 0.0186248 0.0177555 0.0177555 0.0169041 0.0169041 0.0160708 0.0160708 0.0152555 0.0152555 0.0144585 0.0144585 0.0136796 0.0136796 0.0129189 0.0129189 0.0121764 0.0121764 0.0114522 0.0114522 0.0107462 0.0107462 0.0100584 0.0100584 0.00938888 0.00938888 0.00873751 0.00873751 0.00810428 0.00810428 0.00748915 0.00748915 0.00689207 0.00689207 0.00631298 0.00631298 0.0057518 0.0057518 0.00520847 0.00520847 0.00468289 0.00468289 0.00417497 0.00417497 0.00368461 0.00368461 0.0032117 0.0032117 0.00275612 0.00275612 0.00231775 0.00231775 0.00189645 0.00189645 0.0014921 0.0014921 0.00110454 0.00110454 0.000733617 0.000733617 0.000379181 0.000379181 4.10627e-05 4.10627e-05 -0.000280908 -0.000280908 -0.000586907 -0.000586907 -0.000877119 -0.000877119 -0.00115173 -0.00115173 -0.00141093 -0.00141093 -0.00165493 -0.00165493 -0.00188393 -0.00188393 -0.00209812 -0.00209812 -0.00229774 -0.00229774 -0.002483 -0.002483 -0.00265411 -0.00265411 -0.0028113 -0.0028113 -0.00295481 -0.00295481 -0.00308487 -0.00308487 -0.00320172 -0.00320172 -0.00330559 -0.00330559 -0.00339673 -0.00339673 -0.00347539 -0.00347539 -0.00354182 -0.00354182 -0.00359626 -0.00359626 -0.00363898 -0.00363898 -0.00367023 -0.00367023 -0.00369027 -0.00369027 -0.00369936 -0.00369936 -0.00369776 -0.00369776 -0.00368574 -0.00368574 -0.00366356 -0.00366356 -0.00363148 -0.00363148 -0.00358979 -0.00358979 -0.00353874 -0.00353874 -0.0034786 -0.0034786 -0.00340965 -0.00340965 -0.00333215 -0.00333215 -0.00324638 -0.00324638 -0.0031526 -0.0031526 -0.00305108 -0.00305108 -0.0029421 -0.0029421 -0.00282592 -0.00282592 -0.00270281 -0.00270281 -0.00257305 -0.00257305 -0.00243689 -0.00243689 -0.00229461 -0.00229461 -0.00214646 -0.00214646 -0.00199272 -0.00199272 -0.00183364 -0.00183364 -0.00166948 -0.00166948 -0.00150051 -0.00150051 -0.00132698 -0.00132698 -0.00114914 -0.00114914 -0.000967244 -0.000967244 -0.000781545 -0.000781545 -0.00059229 -0.00059229 -0.000399722 -0.000399722 -0.000204084 -0.000204084 -5.61372e-06 -5.61372e-06 0.000195452 0.000195452 0.000398881 0.000398881 0.000604443 0.000604443 0.000811912 0.000811912 0.00102107 0.00102107 0.00123169 0.00123169 0.00144356 0.00144356 0.00165647 0.00165647 0.00187021 0.00187021 0.00208458 0.00208458 0.00229939 0.00229939 0.00251442 0.00251442 0.0027295 0.0027295 0.00294445 0.00294445 0.00315906 0.00315906 0.00337318 0.00337318 0.00358663 0.00358663 0.00379923 0.00379923 0.00401083 0.00401083 0.00422128 0.00422128 0.00443041 0.00443041 0.00463808 0.00463808 0.00484414 0.00484414 0.00504846 0.00504846 0.00525091 0.00525091 0.00545135 0.00545135 0.00564967 0.00564967 0.00584574 0.00584574 0.00603946 0.00603946 0.00623072 0.00623072 0.00641941 0.00641941 0.00660544 0.00660544 0.00678872 0.00678872 0.00696915 0.00696915 0.00714666 0.00714666 0.00732118 0.00732118 0.00749262 0.00749262 0.00766093 0.00766093 0.00782604 0.00782604 0.00798789 0.00798789 0.00814644 0.00814644 0.00830163 0.00830163 0.00845343 0.00845343 0.00860179 0.00860179 0.00874668 0.00874668 0.00888808 0.00888808 0.00902596 0.00902596 0.00916029 0.00916029 0.00929107 0.00929107 0.00941829 0.00941829 0.00954193 0.00954193 0.00966199 0.00966199 0.00977847 0.00977847 0.00989137 0.00989137 0.0100007 0.0100007 0.0101065 0.0101065 0.0102087 0.0102087 0.0103075 0.0103075 0.0104027 0.0104027 0.0104944 0.0104944 0.0105827 0.0105827 0.0106676 0.0106676 0.0107491 0.0107491 0.0108272 0.0108272 0.010902 0.010902 0.0109735 0.0109735 0.0110418 0.0110418 0.0111069 0.0111069 0.0111689 0.0111689 0.0112277 0.0112277 0.0112835 0.0112835 0.0113364 0.0113364 0.0113862 0.0113862 0.0114332 0.0114332 0.0114774 0.0114774 0.0115187 0.0115187 0.0115574 0.0115574 0.0115933 0.0115933 0.0116267 0.0116267 0.0116576 0.0116576 0.0116859 0.0116859 0.0117118 0.0117118 0.0117354 0.0117354 0.0117566 0.0117566 0.0117757 0.0117757 0.0117925 0.0117925 0.0118072 0.0118072 0.0118199 0.0118199 0.0118306 0.0118306 0.0118393 0.0118393 0.0118462 0.0118462 0.0118512 0.0118512 0.0118545 0.0118545 0.0118562 0.0118562 0.0118561 0.0118561 0.0118546 0.0118546 0.0118515 0.0118515 0.0118469 0.0118469 0.011841 0.011841 0.0118337 0.0118337 0.0118251 0.0118251 0.0118152 0.0118152 0.0118042 0.0118042 0.0117921 0.0117921 0.0117789 0.0117789 0.0117646 0.0117646 0.0117494 0.0117494 0.0117333 0.0117333 0.0117162 0.0117162 0.0116983 0.0116983 0.0116797 0.0116797 0.0116603 0.0116603 0.0116401 0.0116401 0.0116193 0.0116193 0.0115979 0.0115979 0.0115759 0.0115759 0.0115533 0.0115533 0.0115303 0.0115303 0.0115067 0.0115067 0.0114827 0.0114827 0.0114584 0.0114584 0.0114336 0.0114336 0.0114085 0.0114085 0.011383 0.011383 0.0113573 0.0113573 0.0113314 0.0113314 0.0113052 0.0113052 0.0112787 0.0112787 0.0112522 0.0112522 0.0112254 0.0112254 0.0111985 0.0111985 0.0111715 0.0111715 0.0111444 0.0111444 0.0111173 0.0111173 0.01109 0.01109 0.0110628 0.0110628 0.0110355 0.0110355 0.0110082 0.0110082 0.0109809 0.0109809 0.0109537 0.0109537 0.0109264 0.0109264 0.0108993 0.0108993 0.0108721 0.0108721 0.0108451 0.0108451 0.0108181 0.0108181 0.0107912 0.0107912 0.0107644 0.0107644 0.0107377 0.0107377 0.0107111 0.0107111 0.0106846 0.0106846 0.0106583 0.0106583 0.010632 0.010632 0.0106059 0.0106059 0.0105799 0.0105799 0.010554 0.010554 0.0105283 0.0105283 0.0105027 0.0105027 0.0104772 0.0104772 0.0104519 0.0104519 0.0104267 0.0104267 0.0104016 0.0104016 0.0103766 0.0103766 0.0103518 0.0103518 0.010327 0.010327 0.0103024 0.0103024 0.0102779 0.0102779 0.0102535 0.0102535 0.0102292 0.0102292 0.010205 0.010205 0.0101809 0.0101809 0.0101568 0.0101568 0.0101328 0.0101328 0.0101089 0.0101089 0.0100851 0.0100851 0.0100612 0.0100612 0.0100375 0.0100375 0.0100137 0.0100137 0.00998994 0.00998994 0.00996619 0.00996619 0.00994243 0.00994243 0.00991864 0.00991864 0.00989483 0.00989483 0.00987096 0.00987096 0.00984704 0.00984704 0.00982304 0.00982304 0.00979895 0.00979895 0.00977476 0.00977476 0.00975045 0.00975045 0.00972601 0.00972601 0.00970142 0.00970142 0.00967667 0.00967667 0.00965173 0.00965173 0.0096266 0.0096266 0.00960126 0.00960126 0.00957568 0.00957568 0.00954986 0.00954986 0.00952378 0.00952378 0.00949741 0.00949741 0.00947074 0.00947074 0.00944375 0.00944375 0.00941643 0.00941643 0.00938875 0.00938875 0.0093607 0.0093607 0.00933226 0.00933226 0.00930341 0.00930341 0.00927414 0.00927414 0.00924441 0.00924441 0.00921423 0.00921423 0.00918356 0.00918356 0.0091524 0.0091524 0.00912072 0.00912072 0.00908851 0.00908851 0.00905574 0.00905574 0.00902242 0.00902242 0.00898851 0.00898851 0.00895401 0.00895401 0.0089189 0.0089189 0.00888317 0.00888317 0.0088468 0.0088468 0.00880979 0.00880979 0.00877212 0.00877212 0.00873378 0.00873378 0.00869477 0.00869477 0.00865508 0.00865508 0.0086147 0.0086147 0.00857363 0.00857363 0.00853186 0.00853186 0.0084894 0.0084894 0.00844626 0.00844626 0.00840242 0.00840242 0.0083579 0.0083579 0.00831271 0.00831271 0.00826686 0.00826686 0.00822035 0.00822035 0.00817322 0.00817322 0.00812547 0.00812547 0.00807713 0.00807713 0.00802823 0.00802823 0.0079788 0.0079788 0.00792886 0.00792886 0.00787847 0.00787847 0.00782765 0.00782765 0.00777646 0.00777646 0.00772495 0.00772495 0.00767317 0.00767317 0.0076212 0.0076212 0.00756908 0.00756908 0.0075169 0.0075169 0.00746474 0.00746474 0.00741267 0.00741267 0.0073608 0.0073608 0.00730922 0.00730922 0.00725804 0.00725804 0.00720737 0.00720737 0.00715733 0.00715733 0.00710805 0.00710805 0.00705966 0.00705966 0.00701233 0.00701233 0.00696619 0.00696619 0.00692142 0.00692142 0.00687819 0.00687819 0.00683668 0.00683668 0.0067971 0.0067971 0.00675964 0.00675964 0.00672452 0.00672452 0.00669198 0.00669198 0.00666225 0.00666225 0.00663559 0.00663559 0.00661226 0.00661226 0.00659254 0.00659254 0.00657673 0.00657673 0.00656513 0.00656513 0.00655806 0.00655806 0.00655585 0.00655585 0.00655886 0.00655886 0.00656745 0.00656745 0.006582 0.006582 0.00660291 0.00660291 0.00663059 0.00663059 0.00666547 0.00666547 0.006708 0.006708 0.00675864 0.00675864 0.00681787 0.00681787 0.00688619 0.00688619 0.00696412 0.00696412 0.00705221 0.00705221 0.00715099 0.00715099 0.00726105 0.00726105 0.00738298 0.00738298 0.00751739 0.00751739 0.00766492 0.00766492 0.00782622 0.00782622 0.00800196 0.00800196 0.00819283 0.00819283 0.00839956 0.00839956 0.00862287 0.00862287 0.00886352 0.00886352 0.00912227 0.00912227 0.00939994 0.00939994 0.00969733 0.00969733 0.0100153 0.0100153 0.0103547 0.0103547 0.0107163 0.0107163 0.0111012 0.0111012 0.0115102 0.0115102 0.0119442 0.0119442 0.0124042 0.0124042 0.0128912 0.0128912 0.0134061 0.0134061 0.0139501 0.0139501 0.014524 0.014524 0.0151291 0.0151291 0.0157662 0.0157662 0.0164366 0.0164366 0.0171412 0.0171412 0.0178812 0.0178812 0.0186578 0.0186578 0.0194721 0.0194721 0.0203252 0.0203252 0.0212182 0.0212182 0.0221524 0.0221524 0.023129 0.023129 0.024149 0.024149 0.0252138 0.0252138 0.0263245 0.0263245 0.0274823 0.0274823 0.0286884 0.0286884 0.0299441 0.0299441 0.0312506 0.0312506 0.032609 0.032609 0.0340205 0.0340205 0.0354865 0.0354865 0.037008 0.037008 0.0385863 0.0385863 0.0402225 0.0402225 0.0419178 0.0419178 0.0436734 0.0436734 0.0454904 0.0454904 0.0473699 0.0473699 0.049313 0.049313 0.0513208 0.0513208 0.0533943 0.0533943 0.0555347 0.0555347 0.0577427 0.0577427 0.0600196 0.0600196 0.062366 0.062366 0.0647831 0.0647831 0.0672716 0.0672716 0.0698323 0.0698323 0.0724661 0.0724661 0.0751735 0.0751735 0.0779554 0.0779554 0.0808124 0.0808124 0.0837449 0.0837449 0.0867536 0.0867536 0.0898389 0.0898389 0.0930012 0.0930012 0.0962408 0.0962408 0.0995579 0.0995579 0.102953 0.102953 0.106426 0.106426 0.109976 0.109976 0.113605 0.113605 0.117311 0.117311 0.121095 0.121095 0.124956 0.124956 0.128894 0.128894 0.132909 0.132909 0.136999 0.136999 0.141164 0.141164 0.145404 0.145404 0.149718 0.149718 0.154104 0.154104 0.158561 0.158561 0.163089 0.163089 0.167686 0.167686 0.172351 0.172351 0.177082 0.177082 0.181877 0.181877 0.186735 0.186735 0.191654 0.191654 0.196633 0.196633 0.201668 0.201668 0.206757 0.206757 0.211899 0.211899 0.217091 0.217091 0.22233 0.22233 0.227613 0.227613 0.232939 0.232939 0.238303 0.238303 0.243703 0.243703 0.249135 0.249135 0.254596 0.254596 0.260083 0.260083 0.265592 0.265592 0.27112 0.27112 0.276662 0.276662 0.282215 0.282215 0.287775 0.287775 0.293337 0.293337 0.298897 0.298897 0.304451 0.304451 0.309994 0.309994 0.315522 0.315522 0.32103 0.32103 0.326513 0.326513 0.331967 0.331967 0.337385 0.337385 0.342764 0.342764 0.348098 0.348098 0.353382 0.353382 0.35861 0.35861 0.363777 0.363777 0.368878 0.368878 0.373907 0.373907 0.378858 0.378858 0.383726 0.383726 0.388506 0.388506 0.39319 0.39319 0.397774 0.397774 0.402252 0.402252 0.406618 0.406618 0.410865 0.410865 0.41499 0.41499 0.418984 0.418984 0.422843 0.422843 0.42656 0.42656 0.430131 0.430131 0.433548 0.433548 0.436807 0.436807 0.4399 0.4399 0.442824 0.442824 0.445572 0.445572 0.448138 0.448138 0.450517 0.450517 0.452704 0.452704 0.454692 0.454692 0.456478 0.456478 0.458055 0.458055 0.459419 0.459419 0.460564 0.460564 0.461486 0.461486 0.46218 0.46218 0.462641 0.462641 0.462865 0.462865 0.462848 0.462848 0.462586 0.462586 0.462074 0.462074 0.461308 0.461308 0.460286 0.460286 0.459003 0.459003 0.457457 0.457457 0.455643 0.455643 0.453561 0.453561 0.451206 0.451206 0.448576 0.448576 0.44567 0.44567 0.442485 0.442485 0.439019 0.439019 0.435271 0.435271 0.431239 0.431239 0.426923 0.426923 0.422322 0.422322 0.417435 0.417435 0.412262 0.412262 0.406803 0.406803 0.401058 0.401058 0.395028 0.395028 0.388713 0.388713 0.382115 0.382115 0.375235 0.375235 0.368074 0.368074 0.360635 0.360635 0.352919 0.352919 0.344928 0.344928 0.336667 0.336667 0.328137 0.328137 0.319341 0.319341 0.310284 0.310284 0.300969 0.300969 0.2914 0.2914 0.281582 0.281582 0.271518 0.271518 0.261214 0.261214 0.250675 0.250675 0.239906 0.239906 0.228913 0.228913 0.217702 0.217702 0.206278 0.206278 0.194648 0.194648 0.182819 0.182819 0.170797 0.170797 0.158589 0.158589 0.146202 0.146202 0.133644 0.133644 0.120923 0.120923 0.108045 0.108045 0.0950199 0.0950199 0.0818545 0.0818545 0.0685575 0.0685575 0.0551372 0.0551372 0.0416023 0.0416023 0.0279614 0.0279614 0.0142234 0.0142234 0.000397214 0.000397214 -0.0135081 -0.0135081 -0.0274834 -0.0274834 -0.0415194 -0.0415194 -0.0556068 -0.0556068 -0.0697362 -0.0697362 -0.0838981 -0.0838981 -0.0980831 -0.0980831 -0.112282 -0.112282 -0.126484 -0.126484 -0.140681 -0.140681 -0.154862 -0.154862 -0.169019 -0.169019 -0.183141 -0.183141 -0.197219 -0.197219 -0.211244 -0.211244 -0.225206 -0.225206 -0.239095 -0.239095 -0.252903 -0.252903 -0.26662 -0.26662 -0.280236 -0.280236 -0.293743 -0.293743 -0.307132 -0.307132 -0.320394 -0.320394 -0.33352 -0.33352 -0.346501 -0.346501 -0.359329 -0.359329 -0.371996 -0.371996 -0.384494 -0.384494 -0.396814 -0.396814 -0.408949 -0.408949 -0.420891 -0.420891 -0.432632 -0.432632 -0.444166 -0.444166 -0.455486 -0.455486 -0.466584 -0.466584 -0.477454 -0.477454 -0.48809 -0.48809 -0.498485 -0.498485 -0.508634 -0.508634 -0.51853 -0.51853 -0.52817 -0.52817 -0.537546 -0.537546 -0.546656 -0.546656 -0.555493 -0.555493 -0.564053 -0.564053 -0.572333 -0.572333 -0.580329 -0.580329 -0.588036 -0.588036 -0.595452 -0.595452 -0.602574 -0.602574 -0.609399 -0.609399 -0.615924 -0.615924 -0.622148 -0.622148 -0.628068 -0.628068 -0.633682 -0.633682 -0.63899 -0.63899 -0.643991 -0.643991 -0.648683 -0.648683 -0.653066 -0.653066 -0.657139 -0.657139 -0.660904 -0.660904 -0.664359 -0.664359 -0.667507 -0.667507 -0.670346 -0.670346 -0.672879 -0.672879 -0.675107 -0.675107 -0.677031 -0.677031 -0.678653 -0.678653 -0.679976 -0.679976 -0.681001 -0.681001 -0.681731 -0.681731 -0.682169 -0.682169 -0.682317 -0.682317 -0.68218 -0.68218 -0.68176 -0.68176 -0.68106 -0.68106 -0.680086 -0.680086 -0.67884 -0.67884 -0.677326 -0.677326 -0.67555 -0.67555 -0.673516 -0.673516 -0.671228 -0.671228 -0.668691 -0.668691 -0.66591 -0.66591 -0.66289 -0.66289 -0.659637 -0.659637 -0.656155 -0.656155 -0.652451 -0.652451 -0.648529 -0.648529 -0.644396 -0.644396 -0.640057 -0.640057 -0.635519 -0.635519 -0.630786 -0.630786 -0.625866 -0.625866 -0.620764 -0.620764 -0.615487 -0.615487 -0.610039 -0.610039 -0.604429 -0.604429 -0.598662 -0.598662 -0.592744 -0.592744 -0.586682 -0.586682 -0.580482 -0.580482 -0.574151 -0.574151 -0.567694 -0.567694 -0.561118 -0.561118 -0.55443 -0.55443 -0.547635 -0.547635 -0.54074 -0.54074 -0.533751 -0.533751 -0.526675 -0.526675 -0.519518 -0.519518 -0.512285 -0.512285 -0.504982 -0.504982 -0.497617 -0.497617 -0.490194 -0.490194 -0.48272 -0.48272 -0.4752 -0.4752 -0.46764 -0.46764 -0.460046 -0.460046 -0.452422 -0.452422 -0.444776 -0.444776 -0.437111 -0.437111 -0.429434 -0.429434 -0.421749 -0.421749 -0.414061 -0.414061 -0.406376 -0.406376 -0.398698 -0.398698 -0.391031 -0.391031 -0.383381 -0.383381 -0.375752 -0.375752 -0.368149 -0.368149 -0.360574 -0.360574 -0.353034 -0.353034 -0.345531 -0.345531 -0.338069 -0.338069 -0.330652 -0.330652 -0.323284 -0.323284 -0.315968 -0.315968 -0.308708 -0.308708 -0.301507 -0.301507 -0.294367 -0.294367 -0.287292 -0.287292 -0.280285 -0.280285 -0.273348 -0.273348 -0.266484 -0.266484 -0.259695 -0.259695 -0.252984 -0.252984 -0.246352 -0.246352 -0.239802 -0.239802 -0.233336 -0.233336 -0.226955 -0.226955 -0.220662 -0.220662 -0.214458 -0.214458 -0.208343 -0.208343 -0.202321 -0.202321 -0.196391 -0.196391 -0.190555 -0.190555 -0.184814 -0.184814 -0.179168 -0.179168 -0.17362 -0.17362 -0.168168 -0.168168 -0.162815 -0.162815 -0.157559 -0.157559 -0.152402 -0.152402 -0.147345 -0.147345 -0.142386 -0.142386 -0.137527 -0.137527 -0.132767 -0.132767 -0.128106 -0.128106 -0.123544 -0.123544 -0.119081 -0.119081 -0.114716 -0.114716 -0.11045 -0.11045 -0.106281 -0.106281 -0.10221 -0.10221 -0.0982348 -0.0982348 -0.0943558 -0.0943558 -0.090572 -0.090572 -0.0868828 -0.0868828 -0.0832871 -0.0832871 -0.0797843 -0.0797843 -0.0763734 -0.0763734 -0.0730533 -0.0730533 -0.0698232 -0.0698232 -0.0666819 -0.0666819 -0.0636283 -0.0636283 -0.0606614 -0.0606614 -0.0577799 -0.0577799 -0.0549827 -0.0549827 -0.0522685 -0.0522685 -0.0496361 -0.0496361 -0.0470842 -0.0470842 -0.0446115 -0.0446115 -0.0422167 -0.0422167 -0.0398984 -0.0398984 -0.0376553 -0.0376553 -0.0354861 -0.0354861 -0.0333892 -0.0333892 -0.0313634 -0.0313634 -0.0294073 -0.0294073 -0.0275193 -0.0275193 -0.0256982 -0.0256982 -0.0239424 -0.0239424 -0.0222506 -0.0222506 -0.0206213 -0.0206213 -0.0190532 -0.0190532 -0.0175447 -0.0175447 -0.0160945 -0.0160945 -0.0147012 -0.0147012 -0.0133633 -0.0133633 -0.0120795 -