# vtk DataFile Version 3.0
#This file was generated by the deal.II library on 2020/9/1 at 14:41:30
ASCII
DATASET UNSTRUCTURED_GRID

POINTS 2048 double
1.5 0 0
1.59619 0 0
1.59619 0 0
1.69238 0 0
1.69238 0 0
1.78857 0 0
1.78857 0 0
1.88477 0 0
1.88477 0 0
1.98096 0 0
1.98096 0 0
2.07715 0 0
2.07715 0 0
2.17334 0 0
2.17334 0 0
2.26953 0 0
2.26953 0 0
2.36572 0 0
2.36572 0 0
2.46191 0 0
2.46191 0 0
2.55811 0 0
2.55811 0 0
2.6543 0 0
2.6543 0 0
2.75049 0 0
2.75049 0 0
2.84668 0 0
2.84668 0 0
2.94287 0 0
2.94287 0 0
3.03906 0 0
3.03906 0 0
3.13525 0 0
3.13525 0 0
3.23145 0 0
3.23145 0 0
3.32764 0 0
3.32764 0 0
3.42383 0 0
3.42383 0 0
3.52002 0 0
3.52002 0 0
3.61621 0 0
3.61621 0 0
3.7124 0 0
3.7124 0 0
3.80859 0 0
3.80859 0 0
3.90479 0 0
3.90479 0 0
4.00098 0 0
4.00098 0 0
4.09717 0 0
4.09717 0 0
4.19336 0 0
4.19336 0 0
4.28955 0 0
4.28955 0 0
4.38574 0 0
4.38574 0 0
4.48193 0 0
4.48193 0 0
4.57812 0 0
4.57812 0 0
4.67432 0 0
4.67432 0 0
4.77051 0 0
4.77051 0 0
4.8667 0 0
4.8667 0 0
4.96289 0 0
4.96289 0 0
5.05908 0 0
5.05908 0 0
5.15527 0 0
5.15527 0 0
5.25146 0 0
5.25146 0 0
5.34766 0 0
5.34766 0 0
5.44385 0 0
5.44385 0 0
5.54004 0 0
5.54004 0 0
5.63623 0 0
5.63623 0 0
5.73242 0 0
5.73242 0 0
5.82861 0 0
5.82861 0 0
5.9248 0 0
5.9248 0 0
6.021 0 0
6.021 0 0
6.11719 0 0
6.11719 0 0
6.21338 0 0
6.21338 0 0
6.30957 0 0
6.30957 0 0
6.40576 0 0
6.40576 0 0
6.50195 0 0
6.50195 0 0
6.59814 0 0
6.59814 0 0
6.69434 0 0
6.69434 0 0
6.79053 0 0
6.79053 0 0
6.88672 0 0
6.88672 0 0
6.98291 0 0
6.98291 0 0
7.0791 0 0
7.0791 0 0
7.17529 0 0
7.17529 0 0
7.27148 0 0
7.27148 0 0
7.36768 0 0
7.36768 0 0
7.46387 0 0
7.46387 0 0
7.56006 0 0
7.56006 0 0
7.65625 0 0
7.65625 0 0
7.75244 0 0
7.75244 0 0
7.84863 0 0
7.84863 0 0
7.94482 0 0
7.94482 0 0
8.04102 0 0
8.04102 0 0
8.13721 0 0
8.13721 0 0
8.2334 0 0
8.2334 0 0
8.32959 0 0
8.32959 0 0
8.42578 0 0
8.42578 0 0
8.52197 0 0
8.52197 0 0
8.61816 0 0
8.61816 0 0
8.71436 0 0
8.71436 0 0
8.81055 0 0
8.81055 0 0
8.90674 0 0
8.90674 0 0
9.00293 0 0
9.00293 0 0
9.09912 0 0
9.09912 0 0
9.19531 0 0
9.19531 0 0
9.2915 0 0
9.2915 0 0
9.3877 0 0
9.3877 0 0
9.48389 0 0
9.48389 0 0
9.58008 0 0
9.58008 0 0
9.67627 0 0
9.67627 0 0
9.77246 0 0
9.77246 0 0
9.86865 0 0
9.86865 0 0
9.96484 0 0
9.96484 0 0
10.061 0 0
10.061 0 0
10.1572 0 0
10.1572 0 0
10.2534 0 0
10.2534 0 0
10.3496 0 0
10.3496 0 0
10.4458 0 0
10.4458 0 0
10.542 0 0
10.542 0 0
10.6382 0 0
10.6382 0 0
10.7344 0 0
10.7344 0 0
10.8306 0 0
10.8306 0 0
10.9268 0 0
10.9268 0 0
11.0229 0 0
11.0229 0 0
11.1191 0 0
11.1191 0 0
11.2153 0 0
11.2153 0 0
11.3115 0 0
11.3115 0 0
11.4077 0 0
11.4077 0 0
11.5039 0 0
11.5039 0 0
11.6001 0 0
11.6001 0 0
11.6963 0 0
11.6963 0 0
11.7925 0 0
11.7925 0 0
11.8887 0 0
11.8887 0 0
11.9849 0 0
11.9849 0 0
12.0811 0 0
12.0811 0 0
12.1772 0 0
12.1772 0 0
12.2734 0 0
12.2734 0 0
12.3696 0 0
12.3696 0 0
12.4658 0 0
12.4658 0 0
12.562 0 0
12.562 0 0
12.6582 0 0
12.6582 0 0
12.7544 0 0
12.7544 0 0
12.8506 0 0
12.8506 0 0
12.9468 0 0
12.9468 0 0
13.043 0 0
13.043 0 0
13.1392 0 0
13.1392 0 0
13.2354 0 0
13.2354 0 0
13.3315 0 0
13.3315 0 0
13.4277 0 0
13.4277 0 0
13.5239 0 0
13.5239 0 0
13.6201 0 0
13.6201 0 0
13.7163 0 0
13.7163 0 0
13.8125 0 0
13.8125 0 0
13.9087 0 0
13.9087 0 0
14.0049 0 0
14.0049 0 0
14.1011 0 0
14.1011 0 0
14.1973 0 0
14.1973 0 0
14.2935 0 0
14.2935 0 0
14.3896 0 0
14.3896 0 0
14.4858 0 0
14.4858 0 0
14.582 0 0
14.582 0 0
14.6782 0 0
14.6782 0 0
14.7744 0 0
14.7744 0 0
14.8706 0 0
14.8706 0 0
14.9668 0 0
14.9668 0 0
15.063 0 0
15.063 0 0
15.1592 0 0
15.1592 0 0
15.2554 0 0
15.2554 0 0
15.3516 0 0
15.3516 0 0
15.4478 0 0
15.4478 0 0
15.5439 0 0
15.5439 0 0
15.6401 0 0
15.6401 0 0
15.7363 0 0
15.7363 0 0
15.8325 0 0
15.8325 0 0
15.9287 0 0
15.9287 0 0
16.0249 0 0
16.0249 0 0
16.1211 0 0
16.1211 0 0
16.2173 0 0
16.2173 0 0
16.3135 0 0
16.3135 0 0
16.4097 0 0
16.4097 0 0
16.5059 0 0
16.5059 0 0
16.6021 0 0
16.6021 0 0
16.6982 0 0
16.6982 0 0
16.7944 0 0
16.7944 0 0
16.8906 0 0
16.8906 0 0
16.9868 0 0
16.9868 0 0
17.083 0 0
17.083 0 0
17.1792 0 0
17.1792 0 0
17.2754 0 0
17.2754 0 0
17.3716 0 0
17.3716 0 0
17.4678 0 0
17.4678 0 0
17.564 0 0
17.564 0 0
17.6602 0 0
17.6602 0 0
17.7563 0 0
17.7563 0 0
17.8525 0 0
17.8525 0 0
17.9487 0 0
17.9487 0 0
18.0449 0 0
18.0449 0 0
18.1411 0 0
18.1411 0 0
18.2373 0 0
18.2373 0 0
18.3335 0 0
18.3335 0 0
18.4297 0 0
18.4297 0 0
18.5259 0 0
18.5259 0 0
18.6221 0 0
18.6221 0 0
18.7183 0 0
18.7183 0 0
18.8145 0 0
18.8145 0 0
18.9106 0 0
18.9106 0 0
19.0068 0 0
19.0068 0 0
19.103 0 0
19.103 0 0
19.1992 0 0
19.1992 0 0
19.2954 0 0
19.2954 0 0
19.3916 0 0
19.3916 0 0
19.4878 0 0
19.4878 0 0
19.584 0 0
19.584 0 0
19.6802 0 0
19.6802 0 0
19.7764 0 0
19.7764 0 0
19.8726 0 0
19.8726 0 0
19.9688 0 0
19.9688 0 0
20.0649 0 0
20.0649 0 0
20.1611 0 0
20.1611 0 0
20.2573 0 0
20.2573 0 0
20.3535 0 0
20.3535 0 0
20.4497 0 0
20.4497 0 0
20.5459 0 0
20.5459 0 0
20.6421 0 0
20.6421 0 0
20.7383 0 0
20.7383 0 0
20.8345 0 0
20.8345 0 0
20.9307 0 0
20.9307 0 0
21.0269 0 0
21.0269 0 0
21.123 0 0
21.123 0 0
21.2192 0 0
21.2192 0 0
21.3154 0 0
21.3154 0 0
21.4116 0 0
21.4116 0 0
21.5078 0 0
21.5078 0 0
21.604 0 0
21.604 0 0
21.7002 0 0
21.7002 0 0
21.7964 0 0
21.7964 0 0
21.8926 0 0
21.8926 0 0
21.9888 0 0
21.9888 0 0
22.085 0 0
22.085 0 0
22.1812 0 0
22.1812 0 0
22.2773 0 0
22.2773 0 0
22.3735 0 0
22.3735 0 0
22.4697 0 0
22.4697 0 0
22.5659 0 0
22.5659 0 0
22.6621 0 0
22.6621 0 0
22.7583 0 0
22.7583 0 0
22.8545 0 0
22.8545 0 0
22.9507 0 0
22.9507 0 0
23.0469 0 0
23.0469 0 0
23.1431 0 0
23.1431 0 0
23.2393 0 0
23.2393 0 0
23.3354 0 0
23.3354 0 0
23.4316 0 0
23.4316 0 0
23.5278 0 0
23.5278 0 0
23.624 0 0
23.624 0 0
23.7202 0 0
23.7202 0 0
23.8164 0 0
23.8164 0 0
23.9126 0 0
23.9126 0 0
24.0088 0 0
24.0088 0 0
24.105 0 0
24.105 0 0
24.2012 0 0
24.2012 0 0
24.2974 0 0
24.2974 0 0
24.3936 0 0
24.3936 0 0
24.4897 0 0
24.4897 0 0
24.5859 0 0
24.5859 0 0
24.6821 0 0
24.6821 0 0
24.7783 0 0
24.7783 0 0
24.8745 0 0
24.8745 0 0
24.9707 0 0
24.9707 0 0
25.0669 0 0
25.0669 0 0
25.1631 0 0
25.1631 0 0
25.2593 0 0
25.2593 0 0
25.3555 0 0
25.3555 0 0
25.4517 0 0
25.4517 0 0
25.5479 0 0
25.5479 0 0
25.644 0 0
25.644 0 0
25.7402 0 0
25.7402 0 0
25.8364 0 0
25.8364 0 0
25.9326 0 0
25.9326 0 0
26.0288 0 0
26.0288 0 0
26.125 0 0
26.125 0 0
26.2212 0 0
26.2212 0 0
26.3174 0 0
26.3174 0 0
26.4136 0 0
26.4136 0 0
26.5098 0 0
26.5098 0 0
26.606 0 0
26.606 0 0
26.7021 0 0
26.7021 0 0
26.7983 0 0
26.7983 0 0
26.8945 0 0
26.8945 0 0
26.9907 0 0
26.9907 0 0
27.0869 0 0
27.0869 0 0
27.1831 0 0
27.1831 0 0
27.2793 0 0
27.2793 0 0
27.3755 0 0
27.3755 0 0
27.4717 0 0
27.4717 0 0
27.5679 0 0
27.5679 0 0
27.6641 0 0
27.6641 0 0
27.7603 0 0
27.7603 0 0
27.8564 0 0
27.8564 0 0
27.9526 0 0
27.9526 0 0
28.0488 0 0
28.0488 0 0
28.145 0 0
28.145 0 0
28.2412 0 0
28.2412 0 0
28.3374 0 0
28.3374 0 0
28.4336 0 0
28.4336 0 0
28.5298 0 0
28.5298 0 0
28.626 0 0
28.626 0 0
28.7222 0 0
28.7222 0 0
28.8184 0 0
28.8184 0 0
28.9146 0 0
28.9146 0 0
29.0107 0 0
29.0107 0 0
29.1069 0 0
29.1069 0 0
29.2031 0 0
29.2031 0 0
29.2993 0 0
29.2993 0 0
29.3955 0 0
29.3955 0 0
29.4917 0 0
29.4917 0 0
29.5879 0 0
29.5879 0 0
29.6841 0 0
29.6841 0 0
29.7803 0 0
29.7803 0 0
29.8765 0 0
29.8765 0 0
29.9727 0 0
29.9727 0 0
30.0688 0 0
30.0688 0 0
30.165 0 0
30.165 0 0
30.2612 0 0
30.2612 0 0
30.3574 0 0
30.3574 0 0
30.4536 0 0
30.4536 0 0
30.5498 0 0
30.5498 0 0
30.646 0 0
30.646 0 0
30.7422 0 0
30.7422 0 0
30.8384 0 0
30.8384 0 0
30.9346 0 0
30.9346 0 0
31.0308 0 0
31.0308 0 0
31.127 0 0
31.127 0 0
31.2231 0 0
31.2231 0 0
31.3193 0 0
31.3193 0 0
31.4155 0 0
31.4155 0 0
31.5117 0 0
31.5117 0 0
31.6079 0 0
31.6079 0 0
31.7041 0 0
31.7041 0 0
31.8003 0 0
31.8003 0 0
31.8965 0 0
31.8965 0 0
31.9927 0 0
31.9927 0 0
32.0889 0 0
32.0889 0 0
32.1851 0 0
32.1851 0 0
32.2812 0 0
32.2812 0 0
32.3774 0 0
32.3774 0 0
32.4736 0 0
32.4736 0 0
32.5698 0 0
32.5698 0 0
32.666 0 0
32.666 0 0
32.7622 0 0
32.7622 0 0
32.8584 0 0
32.8584 0 0
32.9546 0 0
32.9546 0 0
33.0508 0 0
33.0508 0 0
33.147 0 0
33.147 0 0
33.2432 0 0
33.2432 0 0
33.3394 0 0
33.3394 0 0
33.4355 0 0
33.4355 0 0
33.5317 0 0
33.5317 0 0
33.6279 0 0
33.6279 0 0
33.7241 0 0
33.7241 0 0
33.8203 0 0
33.8203 0 0
33.9165 0 0
33.9165 0 0
34.0127 0 0
34.0127 0 0
34.1089 0 0
34.1089 0 0
34.2051 0 0
34.2051 0 0
34.3013 0 0
34.3013 0 0
34.3975 0 0
34.3975 0 0
34.4937 0 0
34.4937 0 0
34.5898 0 0
34.5898 0 0
34.686 0 0
34.686 0 0
34.7822 0 0
34.7822 0 0
34.8784 0 0
34.8784 0 0
34.9746 0 0
34.9746 0 0
35.0708 0 0
35.0708 0 0
35.167 0 0
35.167 0 0
35.2632 0 0
35.2632 0 0
35.3594 0 0
35.3594 0 0
35.4556 0 0
35.4556 0 0
35.5518 0 0
35.5518 0 0
35.6479 0 0
35.6479 0 0
35.7441 0 0
35.7441 0 0
35.8403 0 0
35.8403 0 0
35.9365 0 0
35.9365 0 0
36.0327 0 0
36.0327 0 0
36.1289 0 0
36.1289 0 0
36.2251 0 0
36.2251 0 0
36.3213 0 0
36.3213 0 0
36.4175 0 0
36.4175 0 0
36.5137 0 0
36.5137 0 0
36.6099 0 0
36.6099 0 0
36.7061 0 0
36.7061 0 0
36.8022 0 0
36.8022 0 0
36.8984 0 0
36.8984 0 0
36.9946 0 0
36.9946 0 0
37.0908 0 0
37.0908 0 0
37.187 0 0
37.187 0 0
37.2832 0 0
37.2832 0 0
37.3794 0 0
37.3794 0 0
37.4756 0 0
37.4756 0 0
37.5718 0 0
37.5718 0 0
37.668 0 0
37.668 0 0
37.7642 0 0
37.7642 0 0
37.8604 0 0
37.8604 0 0
37.9565 0 0
37.9565 0 0
38.0527 0 0
38.0527 0 0
38.1489 0 0
38.1489 0 0
38.2451 0 0
38.2451 0 0
38.3413 0 0
38.3413 0 0
38.4375 0 0
38.4375 0 0
38.5337 0 0
38.5337 0 0
38.6299 0 0
38.6299 0 0
38.7261 0 0
38.7261 0 0
38.8223 0 0
38.8223 0 0
38.9185 0 0
38.9185 0 0
39.0146 0 0
39.0146 0 0
39.1108 0 0
39.1108 0 0
39.207 0 0
39.207 0 0
39.3032 0 0
39.3032 0 0
39.3994 0 0
39.3994 0 0
39.4956 0 0
39.4956 0 0
39.5918 0 0
39.5918 0 0
39.688 0 0
39.688 0 0
39.7842 0 0
39.7842 0 0
39.8804 0 0
39.8804 0 0
39.9766 0 0
39.9766 0 0
40.0728 0 0
40.0728 0 0
40.1689 0 0
40.1689 0 0
40.2651 0 0
40.2651 0 0
40.3613 0 0
40.3613 0 0
40.4575 0 0
40.4575 0 0
40.5537 0 0
40.5537 0 0
40.6499 0 0
40.6499 0 0
40.7461 0 0
40.7461 0 0
40.8423 0 0
40.8423 0 0
40.9385 0 0
40.9385 0 0
41.0347 0 0
41.0347 0 0
41.1309 0 0
41.1309 0 0
41.2271 0 0
41.2271 0 0
[...]
POINT_DATA 2048
SCALARS solution_0 double 1
LOOKUP_TABLE default
0.827398 0.862926 0.862926 0.895984 0.895984 0.927031 0.927031 0.956401 0.956401 0.984339 0.984339 1.01103 1.01103 1.03661 1.03661 1.06118 1.06118 1.08483 1.08483 1.10762 1.10762 1.12959 1.12959 1.15077 1.15077 1.17119 1.17119 1.19087 1.19087 1.20981 1.20981 1.22803 1.22803 1.24552 1.24552 1.26228 1.26228 1.2783 1.2783 1.29358 1.29358 1.3081 1.3081 1.32187 1.32187 1.33485 1.33485 1.34705 1.34705 1.35845 1.35845 1.36902 1.36902 1.37877 1.37877 1.38766 1.38766 1.39569 1.39569 1.40284 1.40284 1.4091 1.4091 1.41444 1.41444 1.41886 1.41886 1.42234 1.42234 1.42487 1.42487 1.42642 1.42642 1.427 1.427 1.42658 1.42658 1.42516 1.42516 1.42272 1.42272 1.41926 1.41926 1.41476 1.41476 1.40921 1.40921 1.40262 1.40262 1.39496 1.39496 1.38625 1.38625 1.37646 1.37646 1.36561 1.36561 1.35368 1.35368 1.34068 1.34068 1.32661 1.32661 1.31147 1.31147 1.29525 1.29525 1.27797 1.27797 1.25963 1.25963 1.24024 1.24024 1.2198 1.2198 1.19832 1.19832 1.17582 1.17582 1.1523 1.1523 1.12777 1.12777 1.10226 1.10226 1.07577 1.07577 1.04833 1.04833 1.01994 1.01994 0.990634 0.990634 0.960426 0.960426 0.929338 0.929338 0.897393 0.897393 0.864613 0.864613 0.831024 0.831024 0.79665 0.79665 0.76152 0.76152 0.72566 0.72566 0.6891 0.6891 0.651868 0.651868 0.613997 0.613997 0.575516 0.575516 0.536458 0.536458 0.496857 0.496857 0.456747 0.456747 0.41616 0.41616 0.375134 0.375134 0.333703 0.333703 0.291904 0.291904 0.249773 0.249773 0.207348 0.207348 0.164666 0.164666 0.121766 0.121766 0.0786849 0.0786849 0.0354619 0.0354619 -0.00786444 -0.00786444 -0.0512555 -0.0512555 -0.0946725 -0.0946725 -0.138076 -0.138076 -0.181429 -0.181429 -0.224691 -0.224691 -0.267824 -0.267824 -0.310789 -0.310789 -0.35355 -0.35355 -0.396067 -0.396067 -0.438304 -0.438304 -0.480224 -0.480224 -0.52179 -0.52179 -0.562966 -0.562966 -0.603717 -0.603717 -0.644009 -0.644009 -0.683806 -0.683806 -0.723076 -0.723076 -0.761786 -0.761786 -0.799905 -0.799905 -0.8374 -0.8374 -0.874243 -0.874243 -0.910405 -0.910405 -0.945855 -0.945855 -0.980569 -0.980569 -1.01452 -1.01452 -1.04768 -1.04768 -1.08003 -1.08003 -1.11154 -1.11154 -1.14219 -1.14219 -1.17197 -1.17197 -1.20085 -1.20085 -1.22881 -1.22881 -1.25583 -1.25583 -1.28191 -1.28191 -1.30702 -1.30702 -1.33116 -1.33116 -1.3543 -1.3543 -1.37645 -1.37645 -1.39758 -1.39758 -1.41769 -1.41769 -1.43678 -1.43678 -1.45484 -1.45484 -1.47185 -1.47185 -1.48783 -1.48783 -1.50276 -1.50276 -1.51665 -1.51665 -1.5295 -1.5295 -1.5413 -1.5413 -1.55206 -1.55206 -1.56178 -1.56178 -1.57048 -1.57048 -1.57814 -1.57814 -1.58479 -1.58479 -1.59043 -1.59043 -1.59506 -1.59506 -1.5987 -1.5987 -1.60136 -1.60136 -1.60305 -1.60305 -1.60379 -1.60379 -1.60358 -1.60358 -1.60245 -1.60245 -1.6004 -1.6004 -1.59746 -1.59746 -1.59364 -1.59364 -1.58895 -1.58895 -1.58343 -1.58343 -1.57707 -1.57707 -1.56992 -1.56992 -1.56198 -1.56198 -1.55328 -1.55328 -1.54383 -1.54383 -1.53366 -1.53366 -1.5228 -1.5228 -1.51126 -1.51126 -1.49906 -1.49906 -1.48624 -1.48624 -1.4728 -1.4728 -1.45879 -1.45879 -1.44421 -1.44421 -1.4291 -1.4291 -1.41348 -1.41348 -1.39736 -1.39736 -1.38079 -1.38079 -1.36377 -1.36377 -1.34634 -1.34634 -1.32851 -1.32851 -1.31032 -1.31032 -1.29179 -1.29179 -1.27293 -1.27293 -1.25378 -1.25378 -1.23435 -1.23435 -1.21467 -1.21467 -1.19477 -1.19477 -1.17466 -1.17466 -1.15437 -1.15437 -1.13391 -1.13391 -1.11332 -1.11332 -1.0926 -1.0926 -1.07179 -1.07179 -1.0509 -1.0509 -1.02996 -1.02996 -1.00897 -1.00897 -0.987967 -0.987967 -0.966962 -0.966962 -0.945973 -0.945973 -0.925019 -0.925019 -0.904116 -0.904116 -0.883281 -0.883281 -0.86253 -0.86253 -0.841878 -0.841878 -0.82134 -0.82134 -0.80093 -0.80093 -0.780662 -0.780662 -0.76055 -0.76055 -0.740606 -0.740606 -0.720841 -0.720841 -0.701269 -0.701269 -0.681898 -0.681898 -0.662741 -0.662741 -0.643806 -0.643806 -0.625103 -0.625103 -0.606641 -0.606641 -0.588428 -0.588428 -0.570472 -0.570472 -0.552779 -0.552779 -0.535357 -0.535357 -0.518212 -0.518212 -0.501348 -0.501348 -0.484772 -0.484772 -0.468488 -0.468488 -0.4525 -0.4525 -0.436812 -0.436812 -0.421427 -0.421427 -0.406347 -0.406347 -0.391575 -0.391575 -0.377114 -0.377114 -0.362964 -0.362964 -0.349126 -0.349126 -0.335602 -0.335602 -0.322391 -0.322391 -0.309494 -0.309494 -0.296911 -0.296911 -0.284639 -0.284639 -0.27268 -0.27268 -0.26103 -0.26103 -0.249689 -0.249689 -0.238654 -0.238654 -0.227924 -0.227924 -0.217495 -0.217495 -0.207366 -0.207366 -0.197533 -0.197533 -0.187993 -0.187993 -0.178743 -0.178743 -0.169779 -0.169779 -0.161098 -0.161098 -0.152695 -0.152695 -0.144567 -0.144567 -0.136709 -0.136709 -0.129117 -0.129117 -0.121786 -0.121786 -0.114713 -0.114713 -0.107892 -0.107892 -0.101318 -0.101318 -0.0949868 -0.0949868 -0.0888934 -0.0888934 -0.0830328 -0.0830328 -0.0773999 -0.0773999 -0.0719897 -0.0719897 -0.0667971 -0.0667971 -0.0618169 -0.0618169 -0.057044 -0.057044 -0.0524732 -0.0524732 -0.0480994 -0.0480994 -0.0439174 -0.0439174 -0.0399221 -0.0399221 -0.0361084 -0.0361084 -0.0324711 -0.0324711 -0.0290053 -0.0290053 -0.0257058 -0.0257058 -0.0225677 -0.0225677 -0.019586 -0.019586 -0.0167559 -0.0167559 -0.0140725 -0.0140725 -0.0115311 -0.0115311 -0.00912692 -0.00912692 -0.00685532 -0.00685532 -0.00471174 -0.00471174 -0.00269168 -0.00269168 -0.000790722 -0.000790722 0.000995487 0.000995487 0.00267121 0.00267121 0.00424062 0.00424062 0.00570782 0.00570782 0.00707682 0.00707682 0.00835155 0.00835155 0.00953582 0.00953582 0.0106334 0.0106334 0.0116479 0.0116479 0.012583 0.012583 0.013442 0.013442 0.0142284 0.0142284 0.0149455 0.0149455 0.0155964 0.0155964 0.0161843 0.0161843 0.0167121 0.0167121 0.0171829 0.0171829 0.0175994 0.0175994 0.0179643 0.0179643 0.0182804 0.0182804 0.0185502 0.0185502 0.0187762 0.0187762 0.0189607 0.0189607 0.0191062 0.0191062 0.0192148 0.0192148 0.0192886 0.0192886 0.0193298 0.0193298 0.0193403 0.0193403 0.0193221 0.0193221 0.019277 0.019277 0.0192067 0.0192067 0.019113 0.019113 0.0189974 0.0189974 0.0188615 0.0188615 0.0187069 0.0187069 0.0185348 0.0185348 0.0183468 0.0183468 0.018144 0.018144 0.0179277 0.0179277 0.0176991 0.0176991 0.0174592 0.0174592 0.0172093 0.0172093 0.0169502 0.0169502 0.0166829 0.0166829 0.0164083 0.0164083 0.0161274 0.0161274 0.0158408 0.0158408 0.0155494 0.0155494 0.0152539 0.0152539 0.014955 0.014955 0.0146533 0.0146533 0.0143494 0.0143494 0.0140439 0.0140439 0.0137373 0.0137373 0.0134301 0.0134301 0.0131228 0.0131228 0.0128157 0.0128157 0.0125094 0.0125094 0.0122042 0.0122042 0.0119004 0.0119004 0.0115983 0.0115983 0.0112983 0.0112983 0.0110005 0.0110005 0.0107053 0.0107053 0.0104129 0.0104129 0.0101235 0.0101235 0.00983727 0.00983727 0.00955436 0.00955436 0.00927495 0.00927495 0.00899916 0.00899916 0.00872711 0.00872711 0.00845891 0.00845891 0.00819465 0.00819465 0.0079344 0.0079344 0.00767824 0.00767824 0.00742621 0.00742621 0.00717836 0.00717836 0.00693473 0.00693473 0.00669533 0.00669533 0.00646018 0.00646018 0.00622929 0.00622929 0.00600265 0.00600265 0.00578027 0.00578027 0.00556213 0.00556213 0.00534821 0.00534821 0.00513847 0.00513847 0.0049329 0.0049329 0.00473146 0.00473146 0.00453411 0.00453411 0.00434081 0.00434081 0.0041515 0.0041515 0.00396615 0.00396615 0.0037847 0.0037847 0.0036071 0.0036071 0.00343328 0.00343328 0.0032632 0.0032632 0.00309678 0.00309678 0.00293398 0.00293398 0.00277472 0.00277472 0.00261895 0.00261895 0.0024666 0.0024666 0.00231761 0.00231761 0.00217191 0.00217191 0.00202943 0.00202943 0.00189011 0.00189011 0.00175389 0.00175389 0.0016207 0.0016207 0.00149047 0.00149047 0.00136314 0.00136314 0.00123865 0.00123865 0.00111693 0.00111693 0.000997915 0.000997915 0.000881552 0.000881552 0.000767775 0.000767775 0.000656522 0.000656522 0.000547736 0.000547736 0.000441356 0.000441356 0.000337325 0.000337325 0.000235587 0.000235587 0.000136084 0.000136084 3.8763e-05 3.8763e-05 -5.64302e-05 -5.64302e-05 -0.000149548 -0.000149548 -0.000240643 -0.000240643 -0.000329764 -0.000329764 -0.000416962 -0.000416962 -0.000502284 -0.000502284 -0.000585777 -0.000585777 -0.000667488 -0.000667488 -0.000747461 -0.000747461 -0.00082574 -0.00082574 -0.000902368 -0.000902368 -0.000977386 -0.000977386 -0.00105084 -0.00105084 -0.00112275 -0.00112275 -0.00119318 -0.00119318 -0.00126216 -0.00126216 -0.00132971 -0.00132971 -0.00139589 -0.00139589 -0.00146072 -0.00146072 -0.00152423 -0.00152423 -0.00158646 -0.00158646 -0.00164744 -0.00164744 -0.0017072 -0.0017072 -0.00176577 -0.00176577 -0.00182318 -0.00182318 -0.00187946 -0.00187946 -0.00193463 -0.00193463 -0.00198872 -0.00198872 -0.00204176 -0.00204176 -0.00209377 -0.00209377 -0.00214478 -0.00214478 -0.0021948 -0.0021948 -0.00224387 -0.00224387 -0.002292 -0.002292 -0.00233921 -0.00233921 -0.00238553 -0.00238553 -0.00243098 -0.00243098 -0.00247557 -0.00247557 -0.00251933 -0.00251933 -0.00256227 -0.00256227 -0.00260441 -0.00260441 -0.00264576 -0.00264576 -0.00268635 -0.00268635 -0.00272619 -0.00272619 -0.0027653 -0.0027653 -0.00280369 -0.00280369 -0.00284137 -0.00284137 -0.00287837 -0.00287837 -0.00291469 -0.00291469 -0.00295035 -0.00295035 -0.00298535 -0.00298535 -0.00301973 -0.00301973 -0.00305347 -0.00305347 -0.00308661 -0.00308661 -0.00311914 -0.00311914 -0.00315109 -0.00315109 -0.00318246 -0.00318246 -0.00321326 -0.00321326 -0.0032435 -0.0032435 -0.0032732 -0.0032732 -0.00330236 -0.00330236 -0.00333099 -0.00333099 -0.0033591 -0.0033591 -0.0033867 -0.0033867 -0.00341381 -0.00341381 -0.00344042 -0.00344042 -0.00346654 -0.00346654 -0.0034922 -0.0034922 -0.00351738 -0.00351738 -0.00354211 -0.00354211 -0.00356638 -0.00356638 -0.00359021 -0.00359021 -0.00361361 -0.00361361 -0.00363657 -0.00363657 -0.00365911 -0.00365911 -0.00368124 -0.00368124 -0.00370296 -0.00370296 -0.00372427 -0.00372427 -0.0037452 -0.0037452 -0.00376573 -0.00376573 -0.00378588 -0.00378588 -0.00380566 -0.00380566 -0.00382506 -0.00382506 -0.00384411 -0.00384411 -0.00386279 -0.00386279 -0.00388113 -0.00388113 -0.00389913 -0.00389913 -0.00391678 -0.00391678 -0.00393411 -0.00393411 -0.00395111 -0.00395111 -0.00396779 -0.00396779 -0.00398416 -0.00398416 -0.00400022 -0.00400022 -0.00401598 -0.00401598 -0.00403144 -0.00403144 -0.00404662 -0.00404662 -0.00406152 -0.00406152 -0.00407614 -0.00407614 -0.00409049 -0.00409049 -0.00410458 -0.00410458 -0.00411841 -0.00411841 -0.00413199 -0.00413199 -0.00414532 -0.00414532 -0.00415842 -0.00415842 -0.00417128 -0.00417128 -0.00418392 -0.00418392 -0.00419633 -0.00419633 -0.00420854 -0.00420854 -0.00422053 -0.00422053 -0.00423232 -0.00423232 -0.00424392 -0.00424392 -0.00425532 -0.00425532 -0.00426654 -0.00426654 -0.00427757 -0.00427757 -0.00428843 -0.00428843 -0.00429912 -0.00429912 -0.00430965 -0.00430965 -0.00432001 -0.00432001 -0.00433021 -0.00433021 -0.00434026 -0.00434026 -0.00435015 -0.00435015 -0.0043599 -0.0043599 -0.00436949 -0.00436949 -0.00437895 -0.00437895 -0.00438825 -0.00438825 -0.00439742 -0.00439742 -0.00440643 -0.00440643 -0.00441531 -0.00441531 -0.00442403 -0.00442403 -0.00443261 -0.00443261 -0.00444103 -0.00444103 -0.00444929 -0.00444929 -0.0044574 -0.0044574 -0.00446533 -0.00446533 -0.00447309 -0.00447309 -0.00448066 -0.00448066 -0.00448804 -0.00448804 -0.00449522 -0.00449522 -0.00450219 -0.00450219 -0.00450892 -0.00450892 -0.00451542 -0.00451542 -0.00452166 -0.00452166 -0.00452764 -0.00452764 -0.00453332 -0.00453332 -0.0045387 -0.0045387 -0.00454376 -0.00454376 -0.00454847 -0.00454847 -0.00455281 -0.00455281 -0.00455677 -0.00455677 -0.00456031 -0.00456031 -0.00456341 -0.00456341 -0.00456606 -0.00456606 -0.00456821 -0.00456821 -0.00456985 -0.00456985 -0.00457095 -0.00457095 -0.00457147 -0.00457147 -0.0045714 -0.0045714 -0.00457069 -0.00457069 -0.00456933 -0.00456933 -0.00456727 -0.00456727 -0.00456449 -0.00456449 -0.00456097 -0.00456097 -0.00455666 -0.00455666 -0.00455154 -0.00455154 -0.00454558 -0.00454558 -0.00453876 -0.00453876 -0.00453103 -0.00453103 -0.00452239 -0.00452239 -0.00451279 -0.00451279 -0.00450221 -0.00450221 -0.00449063 -0.00449063 -0.00447803 -0.00447803 -0.00446438 -0.00446438 -0.00444967 -0.00444967 -0.00443388 -0.00443388 -0.00441699 -0.00441699 -0.00439898 -0.00439898 -0.00437985 -0.00437985 -0.00435959 -0.00435959 -0.00433818 -0.00433818 -0.00431563 -0.00431563 -0.00429193 -0.00429193 -0.00426709 -0.00426709 -0.00424111 -0.00424111 -0.00421399 -0.00421399 -0.00418574 -0.00418574 -0.00415638 -0.00415638 -0.00412593 -0.00412593 -0.00409439 -0.00409439 -0.0040618 -0.0040618 -0.00402817 -0.00402817 -0.00399354 -0.00399354 -0.00395793 -0.00395793 -0.00392138 -0.00392138 -0.00388393 -0.00388393 -0.00384561 -0.00384561 -0.00380647 -0.00380647 -0.00376655 -0.00376655 -0.0037259 -0.0037259 -0.00368457 -0.00368457 -0.0036426 -0.0036426 -0.00360006 -0.00360006 -0.003557 -0.003557 -0.00351348 -0.00351348 -0.00346955 -0.00346955 -0.00342528 -0.00342528 -0.00338073 -0.00338073 -0.00333597 -0.00333597 -0.00329105 -0.00329105 -0.00324604 -0.00324604 -0.00320101 -0.00320101 -0.00315602 -0.00315602 -0.00311113 -0.00311113 -0.00306642 -0.00306642 -0.00302194 -0.00302194 -0.00297776 -0.00297776 -0.00293395 -0.00293395 -0.00289056 -0.00289056 -0.00284765 -0.00284765 -0.00280529 -0.00280529 -0.00276353 -0.00276353 -0.00272242 -0.00272242 -0.00268202 -0.00268202 -0.00264238 -0.00264238 -0.00260355 -0.00260355 -0.00256557 -0.00256557 -0.00252848 -0.00252848 -0.00249233 -0.00249233 -0.00245715 -0.00245715 -0.00242297 -0.00242297 -0.00238982 -0.00238982 -0.00235773 -0.00235773 -0.00232672 -0.00232672 -0.00229681 -0.00229681 -0.00226801 -0.00226801 -0.00224035 -0.00224035 -0.00221381 -0.00221381 -0.00218842 -0.00218842 -0.00216416 -0.00216416 -0.00214104 -0.00214104 -0.00211905 -0.00211905 -0.00209817 -0.00209817 -0.00207839 -0.00207839 -0.0020597 -0.0020597 -0.00204208 -0.00204208 -0.00202549 -0.00202549 -0.00200991 -0.00200991 -0.00199531 -0.00199531 -0.00198165 -0.00198165 -0.0019689 -0.0019689 -0.00195702 -0.00195702 -0.00194596 -0.00194596 -0.00193569 -0.00193569 -0.00192615 -0.00192615 -0.00191729 -0.00191729 -0.00190906 -0.00190906 -0.00190142 -0.00190142 -0.0018943 -0.0018943 -0.00188765 -0.00188765 -0.00188142 -0.00188142 -0.00187554 -0.00187554 -0.00186996 -0.00186996 -0.00186462 -0.00186462 -0.00185946 -0.00185946 -0.00185441 -0.00185441 -0.00184943 -0.00184943 -0.00184445 -0.00184445 -0.00183941 -0.00183941 -0.00183425 -0.00183425 -0.00182891 -0.00182891 -0.00182334 -0.00182334 -0.00181748 -0.00181748 -0.00181127 -0.00181127 -0.00180467 -0.00180467 -0.0017976 -0.0017976 -0.00179004 -0.00179004 -0.00178191 -0.00178191 -0.00177318 -0.00177318 -0.0017638 -0.0017638 -0.00175372 -0.00175372 -0.0017429 -0.0017429 -0.0017313 -0.0017313 -0.00171887 -0.00171887 -0.00170558 -0.00170558 -0.00169139 -0.00169139 -0.00167627 -0.00167627 -0.00166018 -0.00166018 -0.00164311 -0.00164311 -0.00162501 -0.00162501 -0.00160586 -0.00160586 -0.00158563 -0.00158563 -0.00156432 -0.00156432 -0.00154188 -0.00154188 -0.00151832 -0.00151832 -0.0014936 -0.0014936 -0.00146772 -0.00146772 -0.00144066 -0.00144066 -0.00141241 -0.00141241 -0.00138296 -0.00138296 -0.00135231 -0.00135231 -0.00132044 -0.00132044 -0.00128735 -0.00128735 -0.00125305 -0.00125305 -0.00121752 -0.00121752 -0.00118077 -0.00118077 -0.00114279 -0.00114279 -0.00110359 -0.00110359 -0.00106318 -0.00106318 -0.00102155 -0.00102155 -0.000978721 -0.000978721 -0.000934686 -0.000934686 -0.000889458 -0.000889458 -0.000843045 -0.000843045 -0.000795456 -0.000795456 -0.000746702 -0.000746702 -0.000696793 -0.000696793 -0.000645741 -0.000645741 -0.000593559 -0.000593559 -0.000540259 -0.000540259 -0.000485856 -0.000485856 -0.000430364 -0.000430364 -0.000373798 -0.000373798 -0.000316174 -0.000316174 -0.000257507 -0.000257507 -0.000197816 -0.000197816 -0.000137116 -0.000137116 -7.5427e-05 -7.5427e-05 -1.27661e-05 -1.27661e-05 5.08473e-05 5.08473e-05 0.000115394 0.000115394 0.000180854 0.000180854 0.000247206 0.000247206 0.00031443 0.00031443 0.000382504 0.000382504 0.000451406 0.000451406 0.000521113 0.000521113 0.000591602 0.000591602 0.00066285 0.00066285 0.000734832 0.000734832 0.000807522 0.000807522 0.000880897 0.000880897 0.000954928 0.000954928 0.00102959 0.00102959 0.00110486 0.00110486 0.0011807 0.0011807 0.00125708 0.00125708 0.00133399 0.00133399 0.00141138 0.00141138 0.00148922 0.00148922 0.00156749 0.00156749 0.00164616 0.00164616 0.00172518 0.00172518 0.00180452 0.00180452 0.00188416 0.00188416 0.00196405 0.00196405 0.00204416 0.00204416 0.00212445 0.00212445 0.00220489 0.00220489 0.00228543 0.00228543 0.00236604 0.00236604 0.00244667 0.00244667 0.00252729 0.00252729 0.00260786 0.00260786 0.00268832 0.00268832 0.00276864 0.00276864 0.00284878 0.00284878 0.00292869 0.00292869 0.00300832 0.00300832 0.00308763 0.00308763 0.00316657 0.00316657 0.00324509 0.00324509 0.00332316 0.00332316 0.00340071 0.00340071 0.0034777 0.0034777 0.00355409 0.00355409 0.00362981 0.00362981 0.00370482 0.00370482 0.00377907 0.00377907 0.00385252 0.00385252 0.0039251 0.0039251 0.00399676 0.00399676 0.00406746 0.00406746 0.00413715 0.00413715 0.00420576 0.00420576 0.00427326 0.00427326 0.00433958 0.00433958 0.00440468 0.00440468 0.00446851 0.00446851 0.00453101 0.00453101 0.00459213 0.00459213 0.00465183 0.00465183 0.00471005 0.00471005 0.00476674 0.00476674 0.00482186 0.00482186 0.00487536 0.00487536 0.00492719 0.00492719 0.0049773 0.0049773 0.00502565 0.00502565 0.0050722 0.0050722 0.0051169 0.0051169 0.00515971 0.00515971 0.00520059 0.00520059 0.00523949 0.00523949 0.00527639 0.00527639 0.00531125 0.00531125 0.00534403 0.00534403 0.00537469 0.00537469 0.00540322 0.00540322 0.00542957 0.00542957 0.00545372 0.00545372 0.00547565 0.00547565 0.00549533 0.00549533 0.00551274 0.00551274 0.00552786 0.00552786 0.00554068 0.00554068 0.00555119 0.00555119 0.00555936 0.00555936 0.0055652 0.0055652 0.00556869 0.00556869 0.00556984 0.00556984 0.00556863 0.00556863 0.00556508 0.00556508 0.0055592 0.0055592 0.00555097 0.00555097 0.00554043 0.00554043 0.00552758 0.00552758 0.00551244 0.00551244 0.00549503 0.00549503 0.00547537 0.00547537 0.0054535 0.0054535 0.00542943 0.00542943 0.00540321 0.00540321 0.00537487 0.00537487 0.00534445 0.00534445 0.005312 0.005312 0.00527756 0.00527756 0.00524118 0.00524118 0.00520291 0.00520291 0.00516282 0.00516282 0.00512096 0.00512096 0.0050774 0.0050774 0.0050322 0.0050322 0.00498544 0.00498544 0.00493719 0.00493719 0.00488753 0.00488753 0.00483653 0.00483653 0.00478429 0.00478429 0.00473089 0.00473089 0.00467641 0.00467641 0.00462096 0.00462096 0.00456463 0.00456463 0.00450752 0.00450752 0.00444974 0.00444974 0.00439139 0.00439139 0.00433257 0.00433257 0.0042734 0.0042734 0.004214 0.004214 0.00415449 0.00415449 0.00409497 0.00409497 0.00403558 0.00403558 0.00397644 0.00397644 0.00391767 0.00391767 0.00385942 0.00385942 0.0038018 0.0038018 0.00374495 0.00374495 0.00368901 0.00368901 0.00363411 0.00363411 0.00358041 0.00358041 0.00352803 0.00352803 0.00347712 0.00347712 0.00342782 0.00342782 0.00338029 0.00338029 0.00333466 0.00333466 0.00329109 0.00329109 0.00324974 0.00324974 0.00321073 0.00321073 0.00317424 0.00317424 0.00314042 0.00314042 0.00310941 0.00310941 0.00308137 0.00308137 0.00305646 0.00305646 0.00303482 0.00303482 0.00301663 0.00301663 0.00300203 0.00300203 0.00299117 0.00299117 0.00298423 0.00298423 0.00298134 0.00298134 0.00298267 0.00298267 0.00298837 0.00298837 0.00299861 0.00299861 0.00301353 0.00301353 0.00303329 0.00303329 0.00305804 0.00305804 0.00308795 0.00308795 0.00312316 0.00312316 0.00316382 0.00316382 0.00321009 0.00321009 0.00326213 0.00326213 0.00332007 0.00332007 0.00338408 0.00338408 0.0034543 0.0034543 0.00353088 0.00353088 0.00361397 0.00361397 0.00370371 0.00370371 0.00380025 0.00380025 0.00390373 0.00390373 0.00401431 0.00401431 0.00413211 0.00413211 0.00425728 0.00425728 0.00438997 0.00438997 0.00453031 0.00453031 0.00467844 0.00467844 0.0048345 0.0048345 0.00499862 0.00499862 0.00517094 0.00517094 0.00535159 0.00535159 0.00554071 0.00554071 0.00573842 0.00573842 0.00594485 0.00594485 0.00616015 0.00616015 0.00638442 0.00638442 0.0066178 0.0066178 0.00686042 0.00686042 0.0071124 0.0071124 0.00737386 0.00737386 0.00764493 0.00764493 0.00792572 0.0