# vtk DataFile Version 3.0
#This file was generated by the deal.II library on 2020/9/1 at 14:40:48
ASCII
DATASET UNSTRUCTURED_GRID

POINTS 2048 double
1.5 0 0
1.59619 0 0
1.59619 0 0
1.69238 0 0
1.69238 0 0
1.78857 0 0
1.78857 0 0
1.88477 0 0
1.88477 0 0
1.98096 0 0
1.98096 0 0
2.07715 0 0
2.07715 0 0
2.17334 0 0
2.17334 0 0
2.26953 0 0
2.26953 0 0
2.36572 0 0
2.36572 0 0
2.46191 0 0
2.46191 0 0
2.55811 0 0
2.55811 0 0
2.6543 0 0
2.6543 0 0
2.75049 0 0
2.75049 0 0
2.84668 0 0
2.84668 0 0
2.94287 0 0
2.94287 0 0
3.03906 0 0
3.03906 0 0
3.13525 0 0
3.13525 0 0
3.23145 0 0
3.23145 0 0
3.32764 0 0
3.32764 0 0
3.42383 0 0
3.42383 0 0
3.52002 0 0
3.52002 0 0
3.61621 0 0
3.61621 0 0
3.7124 0 0
3.7124 0 0
3.80859 0 0
3.80859 0 0
3.90479 0 0
3.90479 0 0
4.00098 0 0
4.00098 0 0
4.09717 0 0
4.09717 0 0
4.19336 0 0
4.19336 0 0
4.28955 0 0
4.28955 0 0
4.38574 0 0
4.38574 0 0
4.48193 0 0
4.48193 0 0
4.57812 0 0
4.57812 0 0
4.67432 0 0
4.67432 0 0
4.77051 0 0
4.77051 0 0
4.8667 0 0
4.8667 0 0
4.96289 0 0
4.96289 0 0
5.05908 0 0
5.05908 0 0
5.15527 0 0
5.15527 0 0
5.25146 0 0
5.25146 0 0
5.34766 0 0
5.34766 0 0
5.44385 0 0
5.44385 0 0
5.54004 0 0
5.54004 0 0
5.63623 0 0
5.63623 0 0
5.73242 0 0
5.73242 0 0
5.82861 0 0
5.82861 0 0
5.9248 0 0
5.9248 0 0
6.021 0 0
6.021 0 0
6.11719 0 0
6.11719 0 0
6.21338 0 0
6.21338 0 0
6.30957 0 0
6.30957 0 0
6.40576 0 0
6.40576 0 0
6.50195 0 0
6.50195 0 0
6.59814 0 0
6.59814 0 0
6.69434 0 0
6.69434 0 0
6.79053 0 0
6.79053 0 0
6.88672 0 0
6.88672 0 0
6.98291 0 0
6.98291 0 0
7.0791 0 0
7.0791 0 0
7.17529 0 0
7.17529 0 0
7.27148 0 0
7.27148 0 0
7.36768 0 0
7.36768 0 0
7.46387 0 0
7.46387 0 0
7.56006 0 0
7.56006 0 0
7.65625 0 0
7.65625 0 0
7.75244 0 0
7.75244 0 0
7.84863 0 0
7.84863 0 0
7.94482 0 0
7.94482 0 0
8.04102 0 0
8.04102 0 0
8.13721 0 0
8.13721 0 0
8.2334 0 0
8.2334 0 0
8.32959 0 0
8.32959 0 0
8.42578 0 0
8.42578 0 0
8.52197 0 0
8.52197 0 0
8.61816 0 0
8.61816 0 0
8.71436 0 0
8.71436 0 0
8.81055 0 0
8.81055 0 0
8.90674 0 0
8.90674 0 0
9.00293 0 0
9.00293 0 0
9.09912 0 0
9.09912 0 0
9.19531 0 0
9.19531 0 0
9.2915 0 0
9.2915 0 0
9.3877 0 0
9.3877 0 0
9.48389 0 0
9.48389 0 0
9.58008 0 0
9.58008 0 0
9.67627 0 0
9.67627 0 0
9.77246 0 0
9.77246 0 0
9.86865 0 0
9.86865 0 0
9.96484 0 0
9.96484 0 0
10.061 0 0
10.061 0 0
10.1572 0 0
10.1572 0 0
10.2534 0 0
10.2534 0 0
10.3496 0 0
10.3496 0 0
10.4458 0 0
10.4458 0 0
10.542 0 0
10.542 0 0
10.6382 0 0
10.6382 0 0
10.7344 0 0
10.7344 0 0
10.8306 0 0
10.8306 0 0
10.9268 0 0
10.9268 0 0
11.0229 0 0
11.0229 0 0
11.1191 0 0
11.1191 0 0
11.2153 0 0
11.2153 0 0
11.3115 0 0
11.3115 0 0
11.4077 0 0
11.4077 0 0
11.5039 0 0
11.5039 0 0
11.6001 0 0
11.6001 0 0
11.6963 0 0
11.6963 0 0
11.7925 0 0
11.7925 0 0
11.8887 0 0
11.8887 0 0
11.9849 0 0
11.9849 0 0
12.0811 0 0
12.0811 0 0
12.1772 0 0
12.1772 0 0
12.2734 0 0
12.2734 0 0
12.3696 0 0
12.3696 0 0
12.4658 0 0
12.4658 0 0
12.562 0 0
12.562 0 0
12.6582 0 0
12.6582 0 0
12.7544 0 0
12.7544 0 0
12.8506 0 0
12.8506 0 0
12.9468 0 0
12.9468 0 0
13.043 0 0
13.043 0 0
13.1392 0 0
13.1392 0 0
13.2354 0 0
13.2354 0 0
13.3315 0 0
13.3315 0 0
13.4277 0 0
13.4277 0 0
13.5239 0 0
13.5239 0 0
13.6201 0 0
13.6201 0 0
13.7163 0 0
13.7163 0 0
13.8125 0 0
13.8125 0 0
13.9087 0 0
13.9087 0 0
14.0049 0 0
14.0049 0 0
14.1011 0 0
14.1011 0 0
14.1973 0 0
14.1973 0 0
14.2935 0 0
14.2935 0 0
14.3896 0 0
14.3896 0 0
14.4858 0 0
14.4858 0 0
14.582 0 0
14.582 0 0
14.6782 0 0
14.6782 0 0
14.7744 0 0
14.7744 0 0
14.8706 0 0
14.8706 0 0
14.9668 0 0
14.9668 0 0
15.063 0 0
15.063 0 0
15.1592 0 0
15.1592 0 0
15.2554 0 0
15.2554 0 0
15.3516 0 0
15.3516 0 0
15.4478 0 0
15.4478 0 0
15.5439 0 0
15.5439 0 0
15.6401 0 0
15.6401 0 0
15.7363 0 0
15.7363 0 0
15.8325 0 0
15.8325 0 0
15.9287 0 0
15.9287 0 0
16.0249 0 0
16.0249 0 0
16.1211 0 0
16.1211 0 0
16.2173 0 0
16.2173 0 0
16.3135 0 0
16.3135 0 0
16.4097 0 0
16.4097 0 0
16.5059 0 0
16.5059 0 0
16.6021 0 0
16.6021 0 0
16.6982 0 0
16.6982 0 0
16.7944 0 0
16.7944 0 0
16.8906 0 0
16.8906 0 0
16.9868 0 0
16.9868 0 0
17.083 0 0
17.083 0 0
17.1792 0 0
17.1792 0 0
17.2754 0 0
17.2754 0 0
17.3716 0 0
17.3716 0 0
17.4678 0 0
17.4678 0 0
17.564 0 0
17.564 0 0
17.6602 0 0
17.6602 0 0
17.7563 0 0
17.7563 0 0
17.8525 0 0
17.8525 0 0
17.9487 0 0
17.9487 0 0
18.0449 0 0
18.0449 0 0
18.1411 0 0
18.1411 0 0
18.2373 0 0
18.2373 0 0
18.3335 0 0
18.3335 0 0
18.4297 0 0
18.4297 0 0
18.5259 0 0
18.5259 0 0
18.6221 0 0
18.6221 0 0
18.7183 0 0
18.7183 0 0
18.8145 0 0
18.8145 0 0
18.9106 0 0
18.9106 0 0
19.0068 0 0
19.0068 0 0
19.103 0 0
19.103 0 0
19.1992 0 0
19.1992 0 0
19.2954 0 0
19.2954 0 0
19.3916 0 0
19.3916 0 0
19.4878 0 0
19.4878 0 0
19.584 0 0
19.584 0 0
19.6802 0 0
19.6802 0 0
19.7764 0 0
19.7764 0 0
19.8726 0 0
19.8726 0 0
19.9688 0 0
19.9688 0 0
20.0649 0 0
20.0649 0 0
20.1611 0 0
20.1611 0 0
20.2573 0 0
20.2573 0 0
20.3535 0 0
20.3535 0 0
20.4497 0 0
20.4497 0 0
20.5459 0 0
20.5459 0 0
20.6421 0 0
20.6421 0 0
20.7383 0 0
20.7383 0 0
20.8345 0 0
20.8345 0 0
20.9307 0 0
20.9307 0 0
21.0269 0 0
21.0269 0 0
21.123 0 0
21.123 0 0
21.2192 0 0
21.2192 0 0
21.3154 0 0
21.3154 0 0
21.4116 0 0
21.4116 0 0
21.5078 0 0
21.5078 0 0
21.604 0 0
21.604 0 0
21.7002 0 0
21.7002 0 0
21.7964 0 0
21.7964 0 0
21.8926 0 0
21.8926 0 0
21.9888 0 0
21.9888 0 0
22.085 0 0
22.085 0 0
22.1812 0 0
22.1812 0 0
22.2773 0 0
22.2773 0 0
22.3735 0 0
22.3735 0 0
22.4697 0 0
22.4697 0 0
22.5659 0 0
22.5659 0 0
22.6621 0 0
22.6621 0 0
22.7583 0 0
22.7583 0 0
22.8545 0 0
22.8545 0 0
22.9507 0 0
22.9507 0 0
23.0469 0 0
23.0469 0 0
23.1431 0 0
23.1431 0 0
23.2393 0 0
23.2393 0 0
23.3354 0 0
23.3354 0 0
23.4316 0 0
23.4316 0 0
23.5278 0 0
23.5278 0 0
23.624 0 0
23.624 0 0
23.7202 0 0
23.7202 0 0
23.8164 0 0
23.8164 0 0
23.9126 0 0
23.9126 0 0
24.0088 0 0
24.0088 0 0
24.105 0 0
24.105 0 0
24.2012 0 0
24.2012 0 0
24.2974 0 0
24.2974 0 0
24.3936 0 0
24.3936 0 0
24.4897 0 0
24.4897 0 0
24.5859 0 0
24.5859 0 0
24.6821 0 0
24.6821 0 0
24.7783 0 0
24.7783 0 0
24.8745 0 0
24.8745 0 0
24.9707 0 0
24.9707 0 0
25.0669 0 0
25.0669 0 0
25.1631 0 0
25.1631 0 0
25.2593 0 0
25.2593 0 0
25.3555 0 0
25.3555 0 0
25.4517 0 0
25.4517 0 0
25.5479 0 0
25.5479 0 0
25.644 0 0
25.644 0 0
25.7402 0 0
25.7402 0 0
25.8364 0 0
25.8364 0 0
25.9326 0 0
25.9326 0 0
26.0288 0 0
26.0288 0 0
26.125 0 0
26.125 0 0
26.2212 0 0
26.2212 0 0
26.3174 0 0
26.3174 0 0
26.4136 0 0
26.4136 0 0
26.5098 0 0
26.5098 0 0
26.606 0 0
26.606 0 0
26.7021 0 0
26.7021 0 0
26.7983 0 0
26.7983 0 0
26.8945 0 0
26.8945 0 0
26.9907 0 0
26.9907 0 0
27.0869 0 0
27.0869 0 0
27.1831 0 0
27.1831 0 0
27.2793 0 0
27.2793 0 0
27.3755 0 0
27.3755 0 0
27.4717 0 0
27.4717 0 0
27.5679 0 0
27.5679 0 0
27.6641 0 0
27.6641 0 0
27.7603 0 0
27.7603 0 0
27.8564 0 0
27.8564 0 0
27.9526 0 0
27.9526 0 0
28.0488 0 0
28.0488 0 0
28.145 0 0
28.145 0 0
28.2412 0 0
28.2412 0 0
28.3374 0 0
28.3374 0 0
28.4336 0 0
28.4336 0 0
28.5298 0 0
28.5298 0 0
28.626 0 0
28.626 0 0
28.7222 0 0
28.7222 0 0
28.8184 0 0
28.8184 0 0
28.9146 0 0
28.9146 0 0
29.0107 0 0
29.0107 0 0
29.1069 0 0
29.1069 0 0
29.2031 0 0
29.2031 0 0
29.2993 0 0
29.2993 0 0
29.3955 0 0
29.3955 0 0
29.4917 0 0
29.4917 0 0
29.5879 0 0
29.5879 0 0
29.6841 0 0
29.6841 0 0
29.7803 0 0
29.7803 0 0
29.8765 0 0
29.8765 0 0
29.9727 0 0
29.9727 0 0
30.0688 0 0
30.0688 0 0
30.165 0 0
30.165 0 0
30.2612 0 0
30.2612 0 0
30.3574 0 0
30.3574 0 0
30.4536 0 0
30.4536 0 0
30.5498 0 0
30.5498 0 0
30.646 0 0
30.646 0 0
30.7422 0 0
30.7422 0 0
30.8384 0 0
30.8384 0 0
30.9346 0 0
30.9346 0 0
31.0308 0 0
31.0308 0 0
31.127 0 0
31.127 0 0
31.2231 0 0
31.2231 0 0
31.3193 0 0
31.3193 0 0
31.4155 0 0
31.4155 0 0
31.5117 0 0
31.5117 0 0
31.6079 0 0
31.6079 0 0
31.7041 0 0
31.7041 0 0
31.8003 0 0
31.8003 0 0
31.8965 0 0
31.8965 0 0
31.9927 0 0
31.9927 0 0
32.0889 0 0
32.0889 0 0
32.1851 0 0
32.1851 0 0
32.2812 0 0
32.2812 0 0
32.3774 0 0
32.3774 0 0
32.4736 0 0
32.4736 0 0
32.5698 0 0
32.5698 0 0
32.666 0 0
32.666 0 0
32.7622 0 0
32.7622 0 0
32.8584 0 0
32.8584 0 0
32.9546 0 0
32.9546 0 0
33.0508 0 0
33.0508 0 0
33.147 0 0
33.147 0 0
33.2432 0 0
33.2432 0 0
33.3394 0 0
33.3394 0 0
33.4355 0 0
33.4355 0 0
33.5317 0 0
33.5317 0 0
33.6279 0 0
33.6279 0 0
33.7241 0 0
33.7241 0 0
33.8203 0 0
33.8203 0 0
33.9165 0 0
33.9165 0 0
34.0127 0 0
34.0127 0 0
34.1089 0 0
34.1089 0 0
34.2051 0 0
34.2051 0 0
34.3013 0 0
34.3013 0 0
34.3975 0 0
34.3975 0 0
34.4937 0 0
34.4937 0 0
34.5898 0 0
34.5898 0 0
34.686 0 0
34.686 0 0
34.7822 0 0
34.7822 0 0
34.8784 0 0
34.8784 0 0
34.9746 0 0
34.9746 0 0
35.0708 0 0
35.0708 0 0
35.167 0 0
35.167 0 0
35.2632 0 0
35.2632 0 0
35.3594 0 0
35.3594 0 0
35.4556 0 0
35.4556 0 0
35.5518 0 0
35.5518 0 0
35.6479 0 0
35.6479 0 0
35.7441 0 0
35.7441 0 0
35.8403 0 0
35.8403 0 0
35.9365 0 0
35.9365 0 0
36.0327 0 0
36.0327 0 0
36.1289 0 0
36.1289 0 0
36.2251 0 0
36.2251 0 0
36.3213 0 0
36.3213 0 0
36.4175 0 0
36.4175 0 0
36.5137 0 0
36.5137 0 0
36.6099 0 0
36.6099 0 0
36.7061 0 0
36.7061 0 0
36.8022 0 0
36.8022 0 0
36.8984 0 0
36.8984 0 0
36.9946 0 0
36.9946 0 0
37.0908 0 0
37.0908 0 0
37.187 0 0
37.187 0 0
37.2832 0 0
37.2832 0 0
37.3794 0 0
37.3794 0 0
37.4756 0 0
37.4756 0 0
37.5718 0 0
37.5718 0 0
37.668 0 0
37.668 0 0
37.7642 0 0
37.7642 0 0
37.8604 0 0
37.8604 0 0
37.9565 0 0
37.9565 0 0
38.0527 0 0
38.0527 0 0
38.1489 0 0
38.1489 0 0
38.2451 0 0
38.2451 0 0
38.3413 0 0
38.3413 0 0
38.4375 0 0
38.4375 0 0
38.5337 0 0
38.5337 0 0
38.6299 0 0
38.6299 0 0
38.7261 0 0
38.7261 0 0
38.8223 0 0
38.8223 0 0
38.9185 0 0
38.9185 0 0
39.0146 0 0
39.0146 0 0
39.1108 0 0
39.1108 0 0
39.207 0 0
39.207 0 0
39.3032 0 0
39.3032 0 0
39.3994 0 0
39.3994 0 0
39.4956 0 0
39.4956 0 0
39.5918 0 0
39.5918 0 0
39.688 0 0
39.688 0 0
39.7842 0 0
39.7842 0 0
39.8804 0 0
39.8804 0 0
39.9766 0 0
39.9766 0 0
40.0728 0 0
40.0728 0 0
40.1689 0 0
40.1689 0 0
40.2651 0 0
40.2651 0 0
40.3613 0 0
40.3613 0 0
40.4575 0 0
40.4575 0 0
40.5537 0 0
40.5537 0 0
40.6499 0 0
40.6499 0 0
40.7461 0 0
40.7461 0 0
40.8423 0 0
40.8423 0 0
40.9385 0 0
40.9385 0 0
41.0347 0 0
41.0347 0 0
41.1309 0 0
41.1309 0 0
41.2271 0 0
41.2271 0 0
[...]
POINT_DATA 2048
SCALARS solution_0 double 1
LOOKUP_TABLE default
0.366045 0.364251 0.364251 0.3613 0.3613 0.357264 0.357264 0.352192 0.352192 0.346113 0.346113 0.339046 0.339046 0.331006 0.331006 0.321999 0.321999 0.312031 0.312031 0.301106 0.301106 0.289229 0.289229 0.2764 0.2764 0.262625 0.262625 0.247906 0.247906 0.23225 0.23225 0.215661 0.215661 0.198146 0.198146 0.179716 0.179716 0.160378 0.160378 0.140146 0.140146 0.119032 0.119032 0.0970505 0.0970505 0.074219 0.074219 0.0505556 0.0505556 0.0260803 0.0260803 0.00081516 0.00081516 -0.0252163 -0.0252163 -0.0519885 -0.0519885 -0.0794742 -0.0794742 -0.107645 -0.107645 -0.136469 -0.136469 -0.165915 -0.165915 -0.195948 -0.195948 -0.226534 -0.226534 -0.257634 -0.257634 -0.289211 -0.289211 -0.321224 -0.321224 -0.353632 -0.353632 -0.386393 -0.386393 -0.419463 -0.419463 -0.452797 -0.452797 -0.48635 -0.48635 -0.520074 -0.520074 -0.553922 -0.553922 -0.587846 -0.587846 -0.621798 -0.621798 -0.655728 -0.655728 -0.689586 -0.689586 -0.723324 -0.723324 -0.75689 -0.75689 -0.790235 -0.790235 -0.823308 -0.823308 -0.856062 -0.856062 -0.888444 -0.888444 -0.920408 -0.920408 -0.951905 -0.951905 -0.982887 -0.982887 -1.01331 -1.01331 -1.04312 -1.04312 -1.07228 -1.07228 -1.10074 -1.10074 -1.12846 -1.12846 -1.15541 -1.15541 -1.18153 -1.18153 -1.20679 -1.20679 -1.23116 -1.23116 -1.2546 -1.2546 -1.27708 -1.27708 -1.29856 -1.29856 -1.31901 -1.31901 -1.33842 -1.33842 -1.35674 -1.35674 -1.37396 -1.37396 -1.39007 -1.39007 -1.40503 -1.40503 -1.41883 -1.41883 -1.43146 -1.43146 -1.4429 -1.4429 -1.45314 -1.45314 -1.46219 -1.46219 -1.47002 -1.47002 -1.47664 -1.47664 -1.48204 -1.48204 -1.48623 -1.48623 -1.48922 -1.48922 -1.49099 -1.49099 -1.49157 -1.49157 -1.49097 -1.49097 -1.48919 -1.48919 -1.48624 -1.48624 -1.48216 -1.48216 -1.47694 -1.47694 -1.47061 -1.47061 -1.4632 -1.4632 -1.45473 -1.45473 -1.44521 -1.44521 -1.43468 -1.43468 -1.42317 -1.42317 -1.4107 -1.4107 -1.3973 -1.3973 -1.38301 -1.38301 -1.36786 -1.36786 -1.35187 -1.35187 -1.3351 -1.3351 -1.31756 -1.31756 -1.2993 -1.2993 -1.28036 -1.28036 -1.26077 -1.26077 -1.24056 -1.24056 -1.21978 -1.21978 -1.19847 -1.19847 -1.17666 -1.17666 -1.1544 -1.1544 -1.13171 -1.13171 -1.10865 -1.10865 -1.08524 -1.08524 -1.06153 -1.06153 -1.03755 -1.03755 -1.01334 -1.01334 -0.988937 -0.988937 -0.964379 -0.964379 -0.9397 -0.9397 -0.914935 -0.914935 -0.890118 -0.890118 -0.865282 -0.865282 -0.840461 -0.840461 -0.815684 -0.815684 -0.790984 -0.790984 -0.76639 -0.76639 -0.741929 -0.741929 -0.71763 -0.71763 -0.69352 -0.69352 -0.669622 -0.669622 -0.645962 -0.645962 -0.622563 -0.622563 -0.599446 -0.599446 -0.576631 -0.576631 -0.554139 -0.554139 -0.531987 -0.531987 -0.510193 -0.510193 -0.488772 -0.488772 -0.467738 -0.467738 -0.447106 -0.447106 -0.426887 -0.426887 -0.407093 -0.407093 -0.387733 -0.387733 -0.368816 -0.368816 -0.350349 -0.350349 -0.33234 -0.33234 -0.314794 -0.314794 -0.297716 -0.297716 -0.281108 -0.281108 -0.264973 -0.264973 -0.249314 -0.249314 -0.23413 -0.23413 -0.219422 -0.219422 -0.205188 -0.205188 -0.191426 -0.191426 -0.178134 -0.178134 -0.165309 -0.165309 -0.152947 -0.152947 -0.141042 -0.141042 -0.12959 -0.12959 -0.118585 -0.118585 -0.108019 -0.108019 -0.0978877 -0.0978877 -0.088182 -0.088182 -0.0788945 -0.0788945 -0.0700171 -0.0700171 -0.0615412 -0.0615412 -0.0534579 -0.0534579 -0.0457581 -0.0457581 -0.0384325 -0.0384325 -0.0314714 -0.0314714 -0.024865 -0.024865 -0.0186034 -0.0186034 -0.0126766 -0.0126766 -0.0070743 -0.0070743 -0.00178637 -0.00178637 0.00319748 0.00319748 0.00788755 0.00788755 0.0122941 0.0122941 0.0164274 0.0164274 0.0202976 0.0202976 0.0239149 0.0239149 0.0272893 0.0272893 0.0304307 0.0304307 0.0333489 0.0333489 0.0360535 0.0360535 0.0385542 0.0385542 0.0408601 0.0408601 0.0429804 0.0429804 0.0449242 0.0449242 0.0467001 0.0467001 0.0483168 0.0483168 0.0497825 0.0497825 0.0511054 0.0511054 0.0522933 0.0522933 0.0533539 0.0533539 0.0542946 0.0542946 0.0551226 0.0551226 0.0558448 0.0558448 0.0564678 0.0564678 0.0569982 0.0569982 0.0574421 0.0574421 0.0578055 0.0578055 0.058094 0.058094 0.0583132 0.0583132 0.0584683 0.0584683 0.0585643 0.0585643 0.058606 0.058606 0.0585978 0.0585978 0.0585442 0.0585442 0.0584492 0.0584492 0.0583167 0.0583167 0.0581505 0.0581505 0.0579538 0.0579538 0.0577302 0.0577302 0.0574825 0.0574825 0.0572138 0.0572138 0.0569268 0.0569268 0.056624 0.056624 0.0563078 0.0563078 0.0559804 0.0559804 0.0556439 0.0556439 0.0553003 0.0553003 0.0549512 0.0549512 0.0545983 0.0545983 0.0542432 0.0542432 0.0538873 0.0538873 0.0535317 0.0535317 0.0531777 0.0531777 0.0528263 0.0528263 0.0524784 0.0524784 0.052135 0.052135 0.0517968 0.0517968 0.0514644 0.0514644 0.0511385 0.0511385 0.0508195 0.0508195 0.0505081 0.0505081 0.0502044 0.0502044 0.049909 0.049909 0.049622 0.049622 0.0493436 0.0493436 0.0490741 0.0490741 0.0488136 0.0488136 0.0485621 0.0485621 0.0483197 0.0483197 0.0480864 0.0480864 0.0478623 0.0478623 0.0476472 0.0476472 0.047441 0.047441 0.0472438 0.0472438 0.0470553 0.0470553 0.0468755 0.0468755 0.0467041 0.0467041 0.0465411 0.0465411 0.0463862 0.0463862 0.0462392 0.0462392 0.0461001 0.0461001 0.0459684 0.0459684 0.0458441 0.0458441 0.0457269 0.0457269 0.0456166 0.0456166 0.0455129 0.0455129 0.0454157 0.0454157 0.0453248 0.0453248 0.0452398 0.0452398 0.0451606 0.0451606 0.045087 0.045087 0.0450187 0.0450187 0.0449555 0.0449555 0.0448972 0.0448972 0.0448436 0.0448436 0.0447945 0.0447945 0.0447496 0.0447496 0.0447089 0.0447089 0.044672 0.044672 0.0446389 0.0446389 0.0446093 0.0446093 0.0445831 0.0445831 0.04456 0.04456 0.04454 0.04454 0.0445228 0.0445228 0.0445083 0.0445083 0.0444964 0.0444964 0.0444869 0.0444869 0.0444797 0.0444797 0.0444747 0.0444747 0.0444716 0.0444716 0.0444705 0.0444705 0.0444712 0.0444712 0.0444735 0.0444735 0.0444774 0.0444774 0.0444828 0.0444828 0.0444896 0.0444896 0.0444976 0.0444976 0.0445069 0.0445069 0.0445172 0.0445172 0.0445286 0.0445286 0.044541 0.044541 0.0445543 0.0445543 0.0445683 0.0445683 0.0445832 0.0445832 0.0445987 0.0445987 0.0446149 0.0446149 0.0446316 0.0446316 0.0446489 0.0446489 0.0446667 0.0446667 0.044685 0.044685 0.0447036 0.0447036 0.0447226 0.0447226 0.0447419 0.0447419 0.0447615 0.0447615 0.0447814 0.0447814 0.0448014 0.0448014 0.0448217 0.0448217 0.0448422 0.0448422 0.0448627 0.0448627 0.0448834 0.0448834 0.0449042 0.0449042 0.044925 0.044925 0.0449459 0.0449459 0.0449669 0.0449669 0.0449878 0.0449878 0.0450088 0.0450088 0.0450297 0.0450297 0.0450506 0.0450506 0.0450714 0.0450714 0.0450922 0.0450922 0.045113 0.045113 0.0451336 0.0451336 0.0451542 0.0451542 0.0451747 0.0451747 0.045195 0.045195 0.0452153 0.0452153 0.0452354 0.0452354 0.0452554 0.0452554 0.0452753 0.0452753 0.045295 0.045295 0.0453147 0.0453147 0.0453341 0.0453341 0.0453534 0.0453534 0.0453726 0.0453726 0.0453916 0.0453916 0.0454104 0.0454104 0.0454291 0.0454291 0.0454476 0.0454476 0.0454659 0.0454659 0.0454841 0.0454841 0.0455021 0.0455021 0.0455199 0.0455199 0.0455376 0.0455376 0.0455551 0.0455551 0.0455724 0.0455724 0.0455895 0.0455895 0.0456065 0.0456065 0.0456233 0.0456233 0.0456399 0.0456399 0.0456564 0.0456564 0.0456726 0.0456726 0.0456887 0.0456887 0.0457046 0.0457046 0.0457204 0.0457204 0.0457359 0.0457359 0.0457513 0.0457513 0.0457665 0.0457665 0.0457816 0.0457816 0.0457965 0.0457965 0.0458112 0.0458112 0.0458257 0.0458257 0.0458401 0.0458401 0.0458543 0.0458543 0.0458683 0.0458683 0.0458822 0.0458822 0.0458959 0.0458959 0.0459094 0.0459094 0.0459228 0.0459228 0.045936 0.045936 0.0459491 0.0459491 0.045962 0.045962 0.0459747 0.0459747 0.0459873 0.0459873 0.0459997 0.0459997 0.046012 0.046012 0.0460241 0.0460241 0.0460361 0.0460361 0.046048 0.046048 0.0460596 0.0460596 0.0460712 0.0460712 0.0460826 0.0460826 0.0460938 0.0460938 0.0461049 0.0461049 0.0461159 0.0461159 0.0461267 0.0461267 0.0461374 0.0461374 0.046148 0.046148 0.0461584 0.0461584 0.0461687 0.0461687 0.0461788 0.0461788 0.0461889 0.0461889 0.0461988 0.0461988 0.0462085 0.0462085 0.0462182 0.0462182 0.0462277 0.0462277 0.0462371 0.0462371 0.0462464 0.0462464 0.0462555 0.0462555 0.0462646 0.0462646 0.0462735 0.0462735 0.0462823 0.0462823 0.046291 0.046291 0.0462995 0.0462995 0.046308 0.046308 0.0463164 0.0463164 0.0463246 0.0463246 0.0463327 0.0463327 0.0463407 0.0463407 0.0463487 0.0463487 0.0463565 0.0463565 0.0463642 0.0463642 0.0463718 0.0463718 0.0463793 0.0463793 0.0463867 0.0463867 0.046394 0.046394 0.0464012 0.0464012 0.0464084 0.0464084 0.0464154 0.0464154 0.0464223 0.0464223 0.0464292 0.0464292 0.0464359 0.0464359 0.0464426 0.0464426 0.0464491 0.0464491 0.0464556 0.0464556 0.046462 0.046462 0.0464683 0.0464683 0.0464745 0.0464745 0.0464807 0.0464807 0.0464868 0.0464868 0.0464927 0.0464927 0.0464986 0.0464986 0.0465045 0.0465045 0.0465102 0.0465102 0.0465159 0.0465159 0.0465215 0.0465215 0.046527 0.046527 0.0465325 0.0465325 0.0465378 0.0465378 0.0465431 0.0465431 0.0465484 0.0465484 0.0465535 0.0465535 0.0465586 0.0465586 0.0465637 0.0465637 0.0465686 0.0465686 0.0465735 0.0465735 0.0465784 0.0465784 0.0465831 0.0465831 0.0465879 0.0465879 0.0465925 0.0465925 0.0465971 0.0465971 0.0466016 0.0466016 0.0466061 0.0466061 0.0466105 0.0466105 0.0466148 0.0466148 0.0466191 0.0466191 0.0466234 0.0466234 0.0466276 0.0466276 0.0466317 0.0466317 0.0466358 0.0466358 0.0466398 0.0466398 0.0466438 0.0466438 0.0466477 0.0466477 0.0466516 0.0466516 0.0466554 0.0466554 0.0466592 0.0466592 0.0466629 0.0466629 0.0466666 0.0466666 0.0466702 0.0466702 0.0466738 0.0466738 0.0466774 0.0466774 0.0466809 0.0466809 0.0466844 0.0466844 0.0466878 0.0466878 0.0466911 0.0466911 0.0466945 0.0466945 0.0466978 0.0466978 0.046701 0.046701 0.0467043 0.0467043 0.0467074 0.0467074 0.0467106 0.0467106 0.0467137 0.0467137 0.0467167 0.0467167 0.0467198 0.0467198 0.0467228 0.0467228 0.0467257 0.0467257 0.0467287 0.0467287 0.0467316 0.0467316 0.0467344 0.0467344 0.0467372 0.0467372 0.04674 0.04674 0.0467428 0.0467428 0.0467455 0.0467455 0.0467482 0.0467482 0.0467509 0.0467509 0.0467536 0.0467536 0.0467562 0.0467562 0.0467588 0.0467588 0.0467613 0.0467613 0.0467639 0.0467639 0.0467664 0.0467664 0.0467689 0.0467689 0.0467713 0.0467713 0.0467738 0.0467738 0.0467762 0.0467762 0.0467786 0.0467786 0.0467809 0.0467809 0.0467833 0.0467833 0.0467856 0.0467856 0.0467879 0.0467879 0.0467901 0.0467901 0.0467924 0.0467924 0.0467946 0.0467946 0.0467968 0.0467968 0.046799 0.046799 0.0468012 0.0468012 0.0468034 0.0468034 0.0468055 0.0468055 0.0468076 0.0468076 0.0468097 0.0468097 0.0468118 0.0468118 0.0468139 0.0468139 0.0468159 0.0468159 0.0468179 0.0468179 0.04682 0.04682 0.046822 0.046822 0.0468239 0.0468239 0.0468259 0.0468259 0.0468279 0.0468279 0.0468298 0.0468298 0.0468317 0.0468317 0.0468337 0.0468337 0.0468356 0.0468356 0.0468375 0.0468375 0.0468393 0.0468393 0.0468412 0.0468412 0.0468431 0.0468431 0.0468449 0.0468449 0.0468467 0.0468467 0.0468486 0.0468486 0.0468504 0.0468504 0.0468522 0.0468522 0.046854 0.046854 0.0468558 0.0468558 0.0468575 0.0468575 0.0468593 0.0468593 0.0468611 0.0468611 0.0468628 0.0468628 0.0468646 0.0468646 0.0468663 0.0468663 0.046868 0.046868 0.0468697 0.0468697 0.0468714 0.0468714 0.0468731 0.0468731 0.0468748 0.0468748 0.0468765 0.0468765 0.0468782 0.0468782 0.0468799 0.0468799 0.0468816 0.0468816 0.0468833 0.0468833 0.0468849 0.0468849 0.0468866 0.0468866 0.0468882 0.0468882 0.0468899 0.0468899 0.0468915 0.0468915 0.0468932 0.0468932 0.0468948 0.0468948 0.0468965 0.0468965 0.0468981 0.0468981 0.0468997 0.0468997 0.0469014 0.0469014 0.046903 0.046903 0.0469046 0.0469046 0.0469062 0.0469062 0.0469079 0.0469079 0.0469095 0.0469095 0.0469111 0.0469111 0.0469127 0.0469127 0.0469143 0.0469143 0.0469159 0.0469159 0.0469175 0.0469175 0.0469192 0.0469192 0.0469208 0.0469208 0.0469224 0.0469224 0.046924 0.046924 0.0469256 0.0469256 0.0469272 0.0469272 0.0469288 0.0469288 0.0469304 0.0469304 0.046932 0.046932 0.0469336 0.0469336 0.0469353 0.0469353 0.0469369 0.0469369 0.0469385 0.0469385 0.0469401 0.0469401 0.0469417 0.0469417 0.0469433 0.0469433 0.046945 0.046945 0.0469466 0.0469466 0.0469482 0.0469482 0.0469498 0.0469498 0.0469514 0.0469514 0.0469531 0.0469531 0.0469547 0.0469547 0.0469563 0.0469563 0.046958 0.046958 0.0469596 0.0469596 0.0469613 0.0469613 0.0469629 0.0469629 0.0469645 0.0469645 0.0469662 0.0469662 0.0469679 0.0469679 0.0469695 0.0469695 0.0469712 0.0469712 0.0469728 0.0469728 0.0469745 0.0469745 0.0469762 0.0469762 0.0469778 0.0469778 0.0469795 0.0469795 0.0469812 0.0469812 0.0469829 0.0469829 0.0469846 0.0469846 0.0469863 0.0469863 0.046988 0.046988 0.0469897 0.0469897 0.0469914 0.0469914 0.0469931 0.0469931 0.0469948 0.0469948 0.0469965 0.0469965 0.0469982 0.0469982 0.0469999 0.0469999 0.0470017 0.0470017 0.0470034 0.0470034 0.0470052 0.0470052 0.0470069 0.0470069 0.0470087 0.0470087 0.0470104 0.0470104 0.0470122 0.0470122 0.0470139 0.0470139 0.0470157 0.0470157 0.0470175 0.0470175 0.0470193 0.0470193 0.047021 0.047021 0.0470228 0.0470228 0.0470246 0.0470246 0.0470264 0.0470264 0.0470282 0.0470282 0.04703 0.04703 0.0470318 0.0470318 0.0470337 0.0470337 0.0470355 0.0470355 0.0470373 0.0470373 0.0470392 0.0470392 0.047041 0.047041 0.0470429 0.0470429 0.0470447 0.0470447 0.0470466 0.0470466 0.0470484 0.0470484 0.0470503 0.0470503 0.0470522 0.0470522 0.0470541 0.0470541 0.0470559 0.0470559 0.0470578 0.0470578 0.0470597 0.0470597 0.0470616 0.0470616 0.0470635 0.0470635 0.0470655 0.0470655 0.0470674 0.0470674 0.0470693 0.0470693 0.0470712 0.0470712 0.0470732 0.0470732 0.0470751 0.0470751 0.0470771 0.0470771 0.047079 0.047079 0.047081 0.047081 0.047083 0.047083 0.047085 0.047085 0.0470869 0.0470869 0.0470889 0.0470889 0.0470909 0.0470909 0.0470929 0.0470929 0.0470949 0.0470949 0.047097 0.047097 0.047099 0.047099 0.047101 0.047101 0.0471031 0.0471031 0.0471051 0.0471051 0.0471072 0.0471072 0.0471092 0.0471092 0.0471113 0.0471113 0.0471134 0.0471134 0.0471155 0.0471155 0.0471176 0.0471176 0.0471197 0.0471197 0.0471218 0.0471218 0.0471239 0.0471239 0.0471261 0.0471261 0.0471282 0.0471282 0.0471304 0.0471304 0.0471325 0.0471325 0.0471347 0.0471347 0.0471369 0.0471369 0.0471391 0.0471391 0.0471413 0.0471413 0.0471435 0.0471435 0.0471458 0.0471458 0.047148 0.047148 0.0471503 0.0471503 0.0471526 0.0471526 0.0471549 0.0471549 0.0471572 0.0471572 0.0471596 0.0471596 0.0471619 0.0471619 0.0471643 0.0471643 0.0471667 0.0471667 0.0471691 0.0471691 0.0471716 0.0471716 0.047174 0.047174 0.0471765 0.0471765 0.047179 0.047179 0.0471816 0.0471816 0.0471842 0.0471842 0.0471868 0.0471868 0.0471894 0.0471894 0.0471921 0.0471921 0.0471948 0.0471948 0.0471975 0.0471975 0.0472003 0.0472003 0.0472031 0.0472031 0.047206 0.047206 0.0472089 0.0472089 0.0472118 0.0472118 0.0472148 0.0472148 0.0472179 0.0472179 0.047221 0.047221 0.0472241 0.0472241 0.0472273 0.0472273 0.0472306 0.0472306 0.0472339 0.0472339 0.0472373 0.0472373 0.0472408 0.0472408 0.0472444 0.0472444 0.047248 0.047248 0.0472517 0.0472517 0.0472555 0.0472555 0.0472593 0.0472593 0.0472633 0.0472633 0.0472673 0.0472673 0.0472715 0.0472715 0.0472757 0.0472757 0.0472801 0.0472801 0.0472846 0.0472846 0.0472891 0.0472891 0.0472938 0.0472938 0.0472986 0.0472986 0.0473036 0.0473036 0.0473087 0.0473087 0.0473139 0.0473139 0.0473192 0.0473192 0.0473247 0.0473247 0.0473304 0.0473304 0.0473362 0.0473362 0.0473421 0.0473421 0.0473483 0.0473483 0.0473546 0.0473546 0.047361 0.047361 0.0473677 0.0473677 0.0473745 0.0473745 0.0473816 0.0473816 0.0473888 0.0473888 0.0473962 0.0473962 0.0474039 0.0474039 0.0474117 0.0474117 0.0474197 0.0474197 0.047428 0.047428 0.0474365 0.0474365 0.0474452 0.0474452 0.0474542 0.0474542 0.0474634 0.0474634 0.0474728 0.0474728 0.0474824 0.0474824 0.0474924 0.0474924 0.0475025 0.0475025 0.0475129 0.0475129 0.0475236 0.0475236 0.0475345 0.0475345 0.0475456 0.0475456 0.047557 0.047557 0.0475687 0.0475687 0.0475806 0.0475806 0.0475928 0.0475928 0.0476052 0.0476052 0.0476179 0.0476179 0.0476308 0.0476308 0.047644 0.047644 0.0476574 0.0476574 0.047671 0.047671 0.0476849 0.0476849 0.0476989 0.0476989 0.0477132 0.0477132 0.0477277 0.0477277 0.0477424 0.0477424 0.0477573 0.0477573 0.0477723 0.0477723 0.0477875 0.0477875 0.0478029 0.0478029 0.0478184 0.0478184 0.047834 0.047834 0.0478497 0.0478497 0.0478655 0.0478655 0.0478813 0.0478813 0.0478972 0.0478972 0.0479131 0.0479131 0.047929 0.047929 0.0479449 0.0479449 0.0479607 0.0479607 0.0479764 0.0479764 0.0479921 0.0479921 0.0480075 0.0480075 0.0480228 0.0480228 0.0480379 0.0480379 0.0480528 0.0480528 0.0480674 0.0480674 0.0480816 0.0480816 0.0480955 0.0480955 0.048109 0.048109 0.0481221 0.0481221 0.0481347 0.0481347 0.0481467 0.0481467 0.0481582 0.0481582 0.0481691 0.0481691 0.0481793 0.0481793 0.0481888 0.0481888 0.0481975 0.0481975 0.0482053 0.0482053 0.0482123 0.0482123 0.0482184 0.0482184 0.0482235 0.0482235 0.0482275 0.0482275 0.0482304 0.0482304 0.0482322 0.0482322 0.0482327 0.0482327 0.048232 0.048232 0.0482299 0.0482299 0.0482264 0.0482264 0.0482214 0.0482214 0.0482149 0.0482149 0.0482068 0.0482068 0.048197 0.048197 0.0481855 0.0481855 0.0481722 0.0481722 0.048157 0.048157 0.0481399 0.0481399 0.0481209 0.0481209 0.0480998 0.0480998 0.0480766 0.0480766 0.0480512 0.0480512 0.0480236 0.0480236 0.0479937 0.0479937 0.0479615 0.0479615 0.0479268 0.0479268 0.0478897 0.0478897 0.0478501 0.0478501 0.0478079 0.0478079 0.047763 0.047763 0.0477155 0.0477155 0.0476653 0.0476653 0.0476123 0.0476123 0.0475565 0.0475565 0.0474978 0.0474978 0.0474362 0.0474362 0.0473717 0.0473717 0.0473042 0.0473042 0.0472337 0.0472337 0.0471602 0.0471602 0.0470836 0.0470836 0.0470039 0.0470039 0.0469211 0.0469211 0.0468352 0.0468352 0.0467462 0.0467462 0.046654 0.046654 0.0465587 0.0465587 0.0464602 0.0464602 0.0463586 0.0463586 0.0462538 0.0462538 0.0461459 0.0461459 0.0460348 0.0460348 0.0459206 0.0459206 0.0458032 0.0458032 0.0456828 0.0456828 0.0455594 0.0455594 0.0454329 0.0454329 0.0453033 0.0453033 0.0451709 0.0451709 0.0450354 0.0450354 0.0448971 0.0448971 0.044756 0.044756 0.044612 0.044612 0.0444653 0.0444653 0.0443159 0.0443159 0.0441638 0.0441638 0.0440092 0.0440092 0.043852 0.043852 0.0436924 0.0436924 0.0435304 0.0435304 0.0433661 0.0433661 0.0431995 0.0431995 0.0430307 0.0430307 0.0428599 0.0428599 0.042687 0.042687 0.0425121 0.0425121 0.0423354 0.0423354 0.0421568 0.0421568 0.0419766 0.0419766 0.0417946 0.0417946 0.0416111 0.0416111 0.0414261 0.0414261 0.0412397 0.0412397 0.041052 0.041052 0.0408629 0.0408629 0.0406727 0.0406727 0.0404813 0.0404813 0.0402889 0.0402889 0.0400954 0.0400954 0.039901 0.039901 0.0397058 0.0397058 0.0395097 0.0395097 0.0393128 0.0393128 0.0391152 0.0391152 0.0389169 0.0389169 0.0387179 0.0387179 0.0385183 0.0385183 0.0383181 0.0383181 0.0381173 0.0381173 0.0379159 0.0379159 0.0377139 0.0377139 0.0375114 0.0375114 0.0373082 0.0373082 0.0371044 0.0371044 0.0369 0.0369 0.0366949 0.0366949 0.036489 0.036489 0.0362823 0.0362823 0.0360747 0.0360747 0.0358661 0.0358661 0.0356565 0.0356565 0.0354457 0.0354457 0.0352336 0.0352336 0.0350201 0.0350201 0.034805 0.034805 0.0345882 0.0345882 0.0343694 0.0343694 0.0341485 0.0341485 0.0339253 0.0339253 0.0336996 0.0336996 0.033471 0.033471 0.0332395 0.0332395 0.0330046 0.0330046 0.0327661 0.0327661 0.0325236 0.0325236 0.0322769 0.0322769 0.0320257 0.0320257 0.0317694 0.0317694 0.0315078 0.0315078 0.0312404 0.0312404 0.0309669 0.0309669 0.0306867 0.0306867 0.0303994 0.0303994 0.0301045 0.0301045 0.0298015 0.0298015 0.0294898 0.0294898 0.029169 0.029169 0.0288384 0.0288384 0.0284974 0.0284974 0.0281455 0.0281455 0.027782 0.027782 0.0274062 0.0274062 0.0270174 0.0270174 0.026615 0.026615 0.0261983 0.0261983 0.0257664 0.0257664 0.0253187 0.0253187 0.0248543 0.0248543 0.0243726 0.0243726 0.0238726 0.0238726 0.0233535 0.0233535 0.0228146 0.0228146 0.022255 0.022255 0.0216737 0.0216737 0.02107 0.02107 0.0204429 0.0204429 0.0197917 0.0197917 0.0191153 0.0191153 0.0184129 0.0184129 0.0176836 0.0176836 0.0169265 0.0169265 0.0161408 0.0161408 0.0153255 0.0153255 0.0144798 0.0144798 0.0136029 0.0136029 0.0126939 0.0126939 0.0117519 0.0117519 0.0107762 0.0107762 0.00976609 0.00976609 0.00872075 0.00872075 0.