# vtk DataFile Version 3.0
#This file was generated by the deal.II library on 2020/9/1 at 15:06:57
ASCII
DATASET UNSTRUCTURED_GRID

POINTS 2048 double
1.5 0 0
1.59619 0 0
1.59619 0 0
1.69238 0 0
1.69238 0 0
1.78857 0 0
1.78857 0 0
1.88477 0 0
1.88477 0 0
1.98096 0 0
1.98096 0 0
2.07715 0 0
2.07715 0 0
2.17334 0 0
2.17334 0 0
2.26953 0 0
2.26953 0 0
2.36572 0 0
2.36572 0 0
2.46191 0 0
2.46191 0 0
2.55811 0 0
2.55811 0 0
2.6543 0 0
2.6543 0 0
2.75049 0 0
2.75049 0 0
2.84668 0 0
2.84668 0 0
2.94287 0 0
2.94287 0 0
3.03906 0 0
3.03906 0 0
3.13525 0 0
3.13525 0 0
3.23145 0 0
3.23145 0 0
3.32764 0 0
3.32764 0 0
3.42383 0 0
3.42383 0 0
3.52002 0 0
3.52002 0 0
3.61621 0 0
3.61621 0 0
3.7124 0 0
3.7124 0 0
3.80859 0 0
3.80859 0 0
3.90479 0 0
3.90479 0 0
4.00098 0 0
4.00098 0 0
4.09717 0 0
4.09717 0 0
4.19336 0 0
4.19336 0 0
4.28955 0 0
4.28955 0 0
4.38574 0 0
4.38574 0 0
4.48193 0 0
4.48193 0 0
4.57812 0 0
4.57812 0 0
4.67432 0 0
4.67432 0 0
4.77051 0 0
4.77051 0 0
4.8667 0 0
4.8667 0 0
4.96289 0 0
4.96289 0 0
5.05908 0 0
5.05908 0 0
5.15527 0 0
5.15527 0 0
5.25146 0 0
5.25146 0 0
5.34766 0 0
5.34766 0 0
5.44385 0 0
5.44385 0 0
5.54004 0 0
5.54004 0 0
5.63623 0 0
5.63623 0 0
5.73242 0 0
5.73242 0 0
5.82861 0 0
5.82861 0 0
5.9248 0 0
5.9248 0 0
6.021 0 0
6.021 0 0
6.11719 0 0
6.11719 0 0
6.21338 0 0
6.21338 0 0
6.30957 0 0
6.30957 0 0
6.40576 0 0
6.40576 0 0
6.50195 0 0
6.50195 0 0
6.59814 0 0
6.59814 0 0
6.69434 0 0
6.69434 0 0
6.79053 0 0
6.79053 0 0
6.88672 0 0
6.88672 0 0
6.98291 0 0
6.98291 0 0
7.0791 0 0
7.0791 0 0
7.17529 0 0
7.17529 0 0
7.27148 0 0
7.27148 0 0
7.36768 0 0
7.36768 0 0
7.46387 0 0
7.46387 0 0
7.56006 0 0
7.56006 0 0
7.65625 0 0
7.65625 0 0
7.75244 0 0
7.75244 0 0
7.84863 0 0
7.84863 0 0
7.94482 0 0
7.94482 0 0
8.04102 0 0
8.04102 0 0
8.13721 0 0
8.13721 0 0
8.2334 0 0
8.2334 0 0
8.32959 0 0
8.32959 0 0
8.42578 0 0
8.42578 0 0
8.52197 0 0
8.52197 0 0
8.61816 0 0
8.61816 0 0
8.71436 0 0
8.71436 0 0
8.81055 0 0
8.81055 0 0
8.90674 0 0
8.90674 0 0
9.00293 0 0
9.00293 0 0
9.09912 0 0
9.09912 0 0
9.19531 0 0
9.19531 0 0
9.2915 0 0
9.2915 0 0
9.3877 0 0
9.3877 0 0
9.48389 0 0
9.48389 0 0
9.58008 0 0
9.58008 0 0
9.67627 0 0
9.67627 0 0
9.77246 0 0
9.77246 0 0
9.86865 0 0
9.86865 0 0
9.96484 0 0
9.96484 0 0
10.061 0 0
10.061 0 0
10.1572 0 0
10.1572 0 0
10.2534 0 0
10.2534 0 0
10.3496 0 0
10.3496 0 0
10.4458 0 0
10.4458 0 0
10.542 0 0
10.542 0 0
10.6382 0 0
10.6382 0 0
10.7344 0 0
10.7344 0 0
10.8306 0 0
10.8306 0 0
10.9268 0 0
10.9268 0 0
11.0229 0 0
11.0229 0 0
11.1191 0 0
11.1191 0 0
11.2153 0 0
11.2153 0 0
11.3115 0 0
11.3115 0 0
11.4077 0 0
11.4077 0 0
11.5039 0 0
11.5039 0 0
11.6001 0 0
11.6001 0 0
11.6963 0 0
11.6963 0 0
11.7925 0 0
11.7925 0 0
11.8887 0 0
11.8887 0 0
11.9849 0 0
11.9849 0 0
12.0811 0 0
12.0811 0 0
12.1772 0 0
12.1772 0 0
12.2734 0 0
12.2734 0 0
12.3696 0 0
12.3696 0 0
12.4658 0 0
12.4658 0 0
12.562 0 0
12.562 0 0
12.6582 0 0
12.6582 0 0
12.7544 0 0
12.7544 0 0
12.8506 0 0
12.8506 0 0
12.9468 0 0
12.9468 0 0
13.043 0 0
13.043 0 0
13.1392 0 0
13.1392 0 0
13.2354 0 0
13.2354 0 0
13.3315 0 0
13.3315 0 0
13.4277 0 0
13.4277 0 0
13.5239 0 0
13.5239 0 0
13.6201 0 0
13.6201 0 0
13.7163 0 0
13.7163 0 0
13.8125 0 0
13.8125 0 0
13.9087 0 0
13.9087 0 0
14.0049 0 0
14.0049 0 0
14.1011 0 0
14.1011 0 0
14.1973 0 0
14.1973 0 0
14.2935 0 0
14.2935 0 0
14.3896 0 0
14.3896 0 0
14.4858 0 0
14.4858 0 0
14.582 0 0
14.582 0 0
14.6782 0 0
14.6782 0 0
14.7744 0 0
14.7744 0 0
14.8706 0 0
14.8706 0 0
14.9668 0 0
14.9668 0 0
15.063 0 0
15.063 0 0
15.1592 0 0
15.1592 0 0
15.2554 0 0
15.2554 0 0
15.3516 0 0
15.3516 0 0
15.4478 0 0
15.4478 0 0
15.5439 0 0
15.5439 0 0
15.6401 0 0
15.6401 0 0
15.7363 0 0
15.7363 0 0
15.8325 0 0
15.8325 0 0
15.9287 0 0
15.9287 0 0
16.0249 0 0
16.0249 0 0
16.1211 0 0
16.1211 0 0
16.2173 0 0
16.2173 0 0
16.3135 0 0
16.3135 0 0
16.4097 0 0
16.4097 0 0
16.5059 0 0
16.5059 0 0
16.6021 0 0
16.6021 0 0
16.6982 0 0
16.6982 0 0
16.7944 0 0
16.7944 0 0
16.8906 0 0
16.8906 0 0
16.9868 0 0
16.9868 0 0
17.083 0 0
17.083 0 0
17.1792 0 0
17.1792 0 0
17.2754 0 0
17.2754 0 0
17.3716 0 0
17.3716 0 0
17.4678 0 0
17.4678 0 0
17.564 0 0
17.564 0 0
17.6602 0 0
17.6602 0 0
17.7563 0 0
17.7563 0 0
17.8525 0 0
17.8525 0 0
17.9487 0 0
17.9487 0 0
18.0449 0 0
18.0449 0 0
18.1411 0 0
18.1411 0 0
18.2373 0 0
18.2373 0 0
18.3335 0 0
18.3335 0 0
18.4297 0 0
18.4297 0 0
18.5259 0 0
18.5259 0 0
18.6221 0 0
18.6221 0 0
18.7183 0 0
18.7183 0 0
18.8145 0 0
18.8145 0 0
18.9106 0 0
18.9106 0 0
19.0068 0 0
19.0068 0 0
19.103 0 0
19.103 0 0
19.1992 0 0
19.1992 0 0
19.2954 0 0
19.2954 0 0
19.3916 0 0
19.3916 0 0
19.4878 0 0
19.4878 0 0
19.584 0 0
19.584 0 0
19.6802 0 0
19.6802 0 0
19.7764 0 0
19.7764 0 0
19.8726 0 0
19.8726 0 0
19.9688 0 0
19.9688 0 0
20.0649 0 0
20.0649 0 0
20.1611 0 0
20.1611 0 0
20.2573 0 0
20.2573 0 0
20.3535 0 0
20.3535 0 0
20.4497 0 0
20.4497 0 0
20.5459 0 0
20.5459 0 0
20.6421 0 0
20.6421 0 0
20.7383 0 0
20.7383 0 0
20.8345 0 0
20.8345 0 0
20.9307 0 0
20.9307 0 0
21.0269 0 0
21.0269 0 0
21.123 0 0
21.123 0 0
21.2192 0 0
21.2192 0 0
21.3154 0 0
21.3154 0 0
21.4116 0 0
21.4116 0 0
21.5078 0 0
21.5078 0 0
21.604 0 0
21.604 0 0
21.7002 0 0
21.7002 0 0
21.7964 0 0
21.7964 0 0
21.8926 0 0
21.8926 0 0
21.9888 0 0
21.9888 0 0
22.085 0 0
22.085 0 0
22.1812 0 0
22.1812 0 0
22.2773 0 0
22.2773 0 0
22.3735 0 0
22.3735 0 0
22.4697 0 0
22.4697 0 0
22.5659 0 0
22.5659 0 0
22.6621 0 0
22.6621 0 0
22.7583 0 0
22.7583 0 0
22.8545 0 0
22.8545 0 0
22.9507 0 0
22.9507 0 0
23.0469 0 0
23.0469 0 0
23.1431 0 0
23.1431 0 0
23.2393 0 0
23.2393 0 0
23.3354 0 0
23.3354 0 0
23.4316 0 0
23.4316 0 0
23.5278 0 0
23.5278 0 0
23.624 0 0
23.624 0 0
23.7202 0 0
23.7202 0 0
23.8164 0 0
23.8164 0 0
23.9126 0 0
23.9126 0 0
24.0088 0 0
24.0088 0 0
24.105 0 0
24.105 0 0
24.2012 0 0
24.2012 0 0
24.2974 0 0
24.2974 0 0
24.3936 0 0
24.3936 0 0
24.4897 0 0
24.4897 0 0
24.5859 0 0
24.5859 0 0
24.6821 0 0
24.6821 0 0
24.7783 0 0
24.7783 0 0
24.8745 0 0
24.8745 0 0
24.9707 0 0
24.9707 0 0
25.0669 0 0
25.0669 0 0
25.1631 0 0
25.1631 0 0
25.2593 0 0
25.2593 0 0
25.3555 0 0
25.3555 0 0
25.4517 0 0
25.4517 0 0
25.5479 0 0
25.5479 0 0
25.644 0 0
25.644 0 0
25.7402 0 0
25.7402 0 0
25.8364 0 0
25.8364 0 0
25.9326 0 0
25.9326 0 0
26.0288 0 0
26.0288 0 0
26.125 0 0
26.125 0 0
26.2212 0 0
26.2212 0 0
26.3174 0 0
26.3174 0 0
26.4136 0 0
26.4136 0 0
26.5098 0 0
26.5098 0 0
26.606 0 0
26.606 0 0
26.7021 0 0
26.7021 0 0
26.7983 0 0
26.7983 0 0
26.8945 0 0
26.8945 0 0
26.9907 0 0
26.9907 0 0
27.0869 0 0
27.0869 0 0
27.1831 0 0
27.1831 0 0
27.2793 0 0
27.2793 0 0
27.3755 0 0
27.3755 0 0
27.4717 0 0
27.4717 0 0
27.5679 0 0
27.5679 0 0
27.6641 0 0
27.6641 0 0
27.7603 0 0
27.7603 0 0
27.8564 0 0
27.8564 0 0
27.9526 0 0
27.9526 0 0
28.0488 0 0
28.0488 0 0
28.145 0 0
28.145 0 0
28.2412 0 0
28.2412 0 0
28.3374 0 0
28.3374 0 0
28.4336 0 0
28.4336 0 0
28.5298 0 0
28.5298 0 0
28.626 0 0
28.626 0 0
28.7222 0 0
28.7222 0 0
28.8184 0 0
28.8184 0 0
28.9146 0 0
28.9146 0 0
29.0107 0 0
29.0107 0 0
29.1069 0 0
29.1069 0 0
29.2031 0 0
29.2031 0 0
29.2993 0 0
29.2993 0 0
29.3955 0 0
29.3955 0 0
29.4917 0 0
29.4917 0 0
29.5879 0 0
29.5879 0 0
29.6841 0 0
29.6841 0 0
29.7803 0 0
29.7803 0 0
29.8765 0 0
29.8765 0 0
29.9727 0 0
29.9727 0 0
30.0688 0 0
30.0688 0 0
30.165 0 0
30.165 0 0
30.2612 0 0
30.2612 0 0
30.3574 0 0
30.3574 0 0
30.4536 0 0
30.4536 0 0
30.5498 0 0
30.5498 0 0
30.646 0 0
30.646 0 0
30.7422 0 0
30.7422 0 0
30.8384 0 0
30.8384 0 0
30.9346 0 0
30.9346 0 0
31.0308 0 0
31.0308 0 0
31.127 0 0
31.127 0 0
31.2231 0 0
31.2231 0 0
31.3193 0 0
31.3193 0 0
31.4155 0 0
31.4155 0 0
31.5117 0 0
31.5117 0 0
31.6079 0 0
31.6079 0 0
31.7041 0 0
31.7041 0 0
31.8003 0 0
31.8003 0 0
31.8965 0 0
31.8965 0 0
31.9927 0 0
31.9927 0 0
32.0889 0 0
32.0889 0 0
32.1851 0 0
32.1851 0 0
32.2812 0 0
32.2812 0 0
32.3774 0 0
32.3774 0 0
32.4736 0 0
32.4736 0 0
32.5698 0 0
32.5698 0 0
32.666 0 0
32.666 0 0
32.7622 0 0
32.7622 0 0
32.8584 0 0
32.8584 0 0
32.9546 0 0
32.9546 0 0
33.0508 0 0
33.0508 0 0
33.147 0 0
33.147 0 0
33.2432 0 0
33.2432 0 0
33.3394 0 0
33.3394 0 0
33.4355 0 0
33.4355 0 0
33.5317 0 0
33.5317 0 0
33.6279 0 0
33.6279 0 0
33.7241 0 0
33.7241 0 0
33.8203 0 0
33.8203 0 0
33.9165 0 0
33.9165 0 0
34.0127 0 0
34.0127 0 0
34.1089 0 0
34.1089 0 0
34.2051 0 0
34.2051 0 0
34.3013 0 0
34.3013 0 0
34.3975 0 0
34.3975 0 0
34.4937 0 0
34.4937 0 0
34.5898 0 0
34.5898 0 0
34.686 0 0
34.686 0 0
34.7822 0 0
34.7822 0 0
34.8784 0 0
34.8784 0 0
34.9746 0 0
34.9746 0 0
35.0708 0 0
35.0708 0 0
35.167 0 0
35.167 0 0
35.2632 0 0
35.2632 0 0
35.3594 0 0
35.3594 0 0
35.4556 0 0
35.4556 0 0
35.5518 0 0
35.5518 0 0
35.6479 0 0
35.6479 0 0
35.7441 0 0
35.7441 0 0
35.8403 0 0
35.8403 0 0
35.9365 0 0
35.9365 0 0
36.0327 0 0
36.0327 0 0
36.1289 0 0
36.1289 0 0
36.2251 0 0
36.2251 0 0
36.3213 0 0
36.3213 0 0
36.4175 0 0
36.4175 0 0
36.5137 0 0
36.5137 0 0
36.6099 0 0
36.6099 0 0
36.7061 0 0
36.7061 0 0
36.8022 0 0
36.8022 0 0
36.8984 0 0
36.8984 0 0
36.9946 0 0
36.9946 0 0
37.0908 0 0
37.0908 0 0
37.187 0 0
37.187 0 0
37.2832 0 0
37.2832 0 0
37.3794 0 0
37.3794 0 0
37.4756 0 0
37.4756 0 0
37.5718 0 0
37.5718 0 0
37.668 0 0
37.668 0 0
37.7642 0 0
37.7642 0 0
37.8604 0 0
37.8604 0 0
37.9565 0 0
37.9565 0 0
38.0527 0 0
38.0527 0 0
38.1489 0 0
38.1489 0 0
38.2451 0 0
38.2451 0 0
38.3413 0 0
38.3413 0 0
38.4375 0 0
38.4375 0 0
38.5337 0 0
38.5337 0 0
38.6299 0 0
38.6299 0 0
38.7261 0 0
38.7261 0 0
38.8223 0 0
38.8223 0 0
38.9185 0 0
38.9185 0 0
39.0146 0 0
39.0146 0 0
39.1108 0 0
39.1108 0 0
39.207 0 0
39.207 0 0
39.3032 0 0
39.3032 0 0
39.3994 0 0
39.3994 0 0
39.4956 0 0
39.4956 0 0
39.5918 0 0
39.5918 0 0
39.688 0 0
39.688 0 0
39.7842 0 0
39.7842 0 0
39.8804 0 0
39.8804 0 0
39.9766 0 0
39.9766 0 0
40.0728 0 0
40.0728 0 0
40.1689 0 0
40.1689 0 0
40.2651 0 0
40.2651 0 0
40.3613 0 0
40.3613 0 0
40.4575 0 0
40.4575 0 0
40.5537 0 0
40.5537 0 0
40.6499 0 0
40.6499 0 0
40.7461 0 0
40.7461 0 0
40.8423 0 0
40.8423 0 0
40.9385 0 0
40.9385 0 0
41.0347 0 0
41.0347 0 0
41.1309 0 0
41.1309 0 0
41.2271 0 0
41.2271 0 0
[...]
POINT_DATA 2048
SCALARS solution_0 double 1
LOOKUP_TABLE default
19294.4 19144.2 19144.2 19054.4 19054.4 19012.7 19012.7 19009.4 19009.4 19036.9 19036.9 19088.7 19088.7 19160 19160 19246.7 19246.7 19345.3 19345.3 19453.3 19453.3 19568.3 19568.3 19688.5 19688.5 19812.4 19812.4 19938.7 19938.7 20066.4 20066.4 20194.6 20194.6 20322.5 20322.5 20449.5 20449.5 20575.2 20575.2 20699.1 20699.1 20820.8 20820.8 20940 20940 21056.6 21056.6 21170.3 21170.3 21280.9 21280.9 21388.2 21388.2 21492.3 21492.3 21593 21593 21690.3 21690.3 21784 21784 21874.2 21874.2 21960.9 21960.9 22044 22044 22123.5 22123.5 22199.5 22199.5 22271.9 22271.9 22340.8 22340.8 22406.2 22406.2 22468.1 22468.1 22526.6 22526.6 22581.7 22581.7 22633.4 22633.4 22681.8 22681.8 22726.9 22726.9 22768.8 22768.8 22807.5 22807.5 22843 22843 22875.5 22875.5 22904.9 22904.9 22931.3 22931.3 22954.7 22954.7 22975.2 22975.2 22992.9 22992.9 23007.7 23007.7 23019.8 23019.8 23029.2 23029.2 23035.9 23035.9 23040 23040 23041.5 23041.5 23040.5 23040.5 23037.1 23037.1 23031.2 23031.2 23022.9 23022.9 23012.3 23012.3 22999.3 22999.3 22984.2 22984.2 22966.8 22966.8 22947.3 22947.3 22925.7 22925.7 22901.9 22901.9 22876.2 22876.2 22848.4 22848.4 22818.7 22818.7 22787.1 22787.1 22753.6 22753.6 22718.3 22718.3 22681.2 22681.2 22642.4 22642.4 22601.8 22601.8 22559.5 22559.5 22515.6 22515.6 22470.1 22470.1 22423 22423 22374.3 22374.3 22324.2 22324.2 22272.6 22272.6 22219.5 22219.5 22165 22165 22109.2 22109.2 22052 22052 21993.5 21993.5 21933.7 21933.7 21872.7 21872.7 21810.4 21810.4 21747 21747 21682.4 21682.4 21616.6 21616.6 21549.8 21549.8 21481.9 21481.9 21412.9 21412.9 21342.9 21342.9 21271.9 21271.9 21199.9 21199.9 21127 21127 21053.1 21053.1 20978.4 20978.4 20902.8 20902.8 20826.3 20826.3 20749 20749 20670.9 20670.9 20592.1 20592.1 20512.4 20512.4 20432.1 20432.1 20351 20351 20269.2 20269.2 20186.8 20186.8 20103.7 20103.7 20020 20020 19935.6 19935.6 19850.7 19850.7 19765.2 19765.2 19679.2 19679.2 19592.6 19592.6 19505.6 19505.6 19418 19418 19329.9 19329.9 19241.4 19241.4 19152.4 19152.4 19063.1 19063.1 18973.3 18973.3 18883.1 18883.1 18792.5 18792.5 18701.6 18701.6 18610.4 18610.4 18518.8 18518.8 18426.9 18426.9 18334.7 18334.7 18242.2 18242.2 18149.5 18149.5 18056.5 18056.5 17963.2 17963.2 17869.8 17869.8 17776.1 17776.1 17682.2 17682.2 17588.2 17588.2 17493.9 17493.9 17399.5 17399.5 17305 17305 17210.3 17210.3 17115.5 17115.5 17020.6 17020.6 16925.6 16925.6 16830.5 16830.5 16735.3 16735.3 16640 16640 16544.7 16544.7 16449.4 16449.4 16354 16354 16258.6 16258.6 16163.2 16163.2 16067.7 16067.7 15972.3 15972.3 15876.9 15876.9 15781.5 15781.5 15686.2 15686.2 15590.9 15590.9 15495.6 15495.6 15400.4 15400.4 15305.3 15305.3 15210.3 15210.3 15115.3 15115.3 15020.4 15020.4 14925.6 14925.6 14831 14831 14736.4 14736.4 14642 14642 14547.7 14547.7 14453.6 14453.6 14359.6 14359.6 14265.7 14265.7 14172 14172 14078.5 14078.5 13985.1 13985.1 13892 13892 13799 13799 13706.2 13706.2 13613.5 13613.5 13521.1 13521.1 13428.9 13428.9 13337 13337 13245.2 13245.2 13153.7 13153.7 13062.3 13062.3 12971.3 12971.3 12880.4 12880.4 12789.8 12789.8 12699.5 12699.5 12609.4 12609.4 12519.6 12519.6 12430 12430 12340.7 12340.7 12251.6 12251.6 12162.9 12162.9 12074.4 12074.4 11986.2 11986.2 11898.3 11898.3 11810.7 11810.7 11723.4 11723.4 11636.3 11636.3 11549.6 11549.6 11463.2 11463.2 11377.1 11377.1 11291.3 11291.3 11205.8 11205.8 11120.6 11120.6 11035.8 11035.8 10951.2 10951.2 10867 10867 10783.1 10783.1 10699.6 10699.6 10616.4 10616.4 10533.5 10533.5 10450.9 10450.9 10368.7 10368.7 10286.9 10286.9 10205.4 10205.4 10124.2 10124.2 10043.4 10043.4 9962.89 9962.89 9882.77 9882.77 9803 9803 9723.59 9723.59 9644.53 9644.53 9565.83 9565.83 9487.49 9487.49 9409.51 9409.51 9331.89 9331.89 9254.64 9254.64 9177.75 9177.75 9101.22 9101.22 9025.07 9025.07 8949.28 8949.28 8873.86 8873.86 8798.81 8798.81 8724.13 8724.13 8649.82 8649.82 8575.89 8575.89 8502.33 8502.33 8429.14 8429.14 8356.32 8356.32 8283.88 8283.88 8211.82 8211.82 8140.13 8140.13 8068.82 8068.82 7997.89 7997.89 7927.33 7927.33 7857.15 7857.15 7787.35 7787.35 7717.92 7717.92 7648.87 7648.87 7580.2 7580.2 7511.91 7511.91 7444 7444 7376.46 7376.46 7309.3 7309.3 7242.52 7242.52 7176.12 7176.12 7110.1 7110.1 7044.45 7044.45 6979.18 6979.18 6914.28 6914.28 6849.76 6849.76 6785.62 6785.62 6721.86 6721.86 6658.46 6658.46 6595.45 6595.45 6532.81 6532.81 6470.54 6470.54 6408.64 6408.64 6347.12 6347.12 6285.97 6285.97 6225.19 6225.19 6164.79 6164.79 6104.75 6104.75 6045.08 6045.08 5985.78 5985.78 5926.85 5926.85 5868.28 5868.28 5810.08 5810.08 5752.25 5752.25 5694.78 5694.78 5637.68 5637.68 5580.94 5580.94 5524.56 5524.56 5468.54 5468.54 5412.88 5412.88 5357.58 5357.58 5302.64 5302.64 5248.05 5248.05 5193.82 5193.82 5139.95 5139.95 5086.42 5086.42 5033.26 5033.26 4980.44 4980.44 4927.97 4927.97 4875.85 4875.85 4824.08 4824.08 4772.66 4772.66 4721.58 4721.58 4670.85 4670.85 4620.46 4620.46 4570.41 4570.41 4520.71 4520.71 4471.34 4471.34 4422.31 4422.31 4373.62 4373.62 4325.26 4325.26 4277.23 4277.23 4229.54 4229.54 4182.18 4182.18 4135.15 4135.15 4088.45 4088.45 4042.08 4042.08 3996.03 3996.03 3950.31 3950.31 3904.91 3904.91 3859.83 3859.83 3815.07 3815.07 3770.63 3770.63 3726.51 3726.51 3682.71 3682.71 3639.22 3639.22 3596.04 3596.04 3553.17 3553.17 3510.61 3510.61 3468.37 3468.37 3426.42 3426.42 3384.79 3384.79 3343.46 3343.46 3302.43 3302.43 3261.7 3261.7 3221.27 3221.27 3181.14 3181.14 3141.31 3141.31 3101.77 3101.77 3062.52 3062.52 3023.57 3023.57 2984.91 2984.91 2946.53 2946.53 2908.44 2908.44 2870.64 2870.64 2833.13 2833.13 2795.89 2795.89 2758.94 2758.94 2722.26 2722.26 2685.87 2685.87 2649.75 2649.75 2613.9 2613.9 2578.33 2578.33 2543.03 2543.03 2508 2508 2473.24 2473.24 2438.74 2438.74 2404.51 2404.51 2370.55 2370.55 2336.84 2336.84 2303.4 2303.4 2270.22 2270.22 2237.29 2237.29 2204.62 2204.62 2172.21 2172.21 2140.05 2140.05 2108.14 2108.14 2076.48 2076.48 2045.06 2045.06 2013.9 2013.9 1982.98 1982.98 1952.3 1952.3 1921.86 1921.86 1891.67 1891.67 1861.71 1861.71 1832 1832 1802.51 1802.51 1773.27 1773.27 1744.25 1744.25 1715.47 1715.47 1686.91 1686.91 1658.59 1658.59 1630.49 1630.49 1602.61 1602.61 1574.96 1574.96 1547.54 1547.54 1520.33 1520.33 1493.34 1493.34 1466.57 1466.57 1440.02 1440.02 1413.68 1413.68 1387.55 1387.55 1361.64 1361.64 1335.93 1335.93 1310.44 1310.44 1285.15 1285.15 1260.07 1260.07 1235.19 1235.19 1210.52 1210.52 1186.04 1186.04 1161.77 1161.77 1137.7 1137.7 1113.82 1113.82 1090.14 1090.14 1066.65 1066.65 1043.36 1043.36 1020.26 1020.26 997.346 997.346 974.623 974.623 952.088 952.088 929.738 929.738 907.573 907.573 885.592 885.592 863.792 863.792 842.173 842.173 820.732 820.732 799.47 799.47 778.384 778.384 757.473 757.473 736.736 736.736 716.172 716.172 695.778 695.778 675.555 675.555 655.499 655.499 635.611 635.611 615.889 615.889 596.332 596.332 576.938 576.938 557.706 557.706 538.634 538.634 519.722 519.722 500.969 500.969 482.372 482.372 463.931 463.931 445.644 445.644 427.511 427.511 409.53 409.53 391.699 391.699 374.019 374.019 356.486 356.486 339.101 339.101 321.862 321.862 304.767 304.767 287.816 287.816 271.008 271.008 254.34 254.34 237.813 237.813 221.425 221.425 205.175 205.175 189.061 189.061 173.083 173.083 157.239 157.239 141.528 141.528 125.95 125.95 110.502 110.502 95.1846 95.1846 79.9958 79.9958 64.9348 64.9348 50.0005 50.0005 35.1917 35.1917 20.5074 20.5074 5.94655 5.94655 -8.49192 -8.49192 -22.8091 -22.8091 -37.0059 -37.0059 -51.0835 -51.0835 -65.0429 -65.0429 -78.8851 -78.8851 -92.6112 -92.6112 -106.222 -106.222 -119.719 -119.719 -133.102 -133.102 -146.374 -146.374 -159.534 -159.534 -172.584 -172.584 -185.525 -185.525 -198.357 -198.357 -211.082 -211.082 -223.701 -223.701 -236.215 -236.215 -248.624 -248.624 -260.929 -260.929 -273.132 -273.132 -285.233 -285.233 -297.233 -297.233 -309.134 -309.134 -320.935 -320.935 -332.639 -332.639 -344.245 -344.245 -355.755 -355.755 -367.17 -367.17 -378.49 -378.49 -389.716 -389.716 -400.849 -400.849 -411.891 -411.891 -422.841 -422.841 -433.701 -433.701 -444.472 -444.472 -455.154 -455.154 -465.748 -465.748 -476.255 -476.255 -486.676 -486.676 -497.012 -497.012 -507.263 -507.263 -517.43 -517.43 -527.514 -527.514 -537.516 -537.516 -547.436 -547.436 -557.276 -557.276 -567.036 -567.036 -576.716 -576.716 -586.319 -586.319 -595.843 -595.843 -605.291 -605.291 -614.662 -614.662 -623.958 -623.958 -633.179 -633.179 -642.326 -642.326 -651.399 -651.399 -660.4 -660.4 -669.329 -669.329 -678.187 -678.187 -686.974 -686.974 -695.691 -695.691 -704.339 -704.339 -712.918 -712.918 -721.43 -721.43 -729.874 -729.874 -738.252 -738.252 -746.564 -746.564 -754.81 -754.81 -762.992 -762.992 -771.11 -771.11 -779.164 -779.164 -787.156 -787.156 -795.086 -795.086 -802.954 -802.954 -810.761 -810.761 -818.507 -818.507 -826.194 -826.194 -833.822 -833.822 -841.391 -841.391 -848.903 -848.903 -856.357 -856.357 -863.754 -863.754 -871.094 -871.094 -878.379 -878.379 -885.609 -885.609 -892.784 -892.784 -899.906 -899.906 -906.973 -906.973 -913.988 -913.988 -920.95 -920.95 -927.861 -927.861 -934.72 -934.72 -941.528 -941.528 -948.285 -948.285 -954.993 -954.993 -961.652 -961.652 -968.261 -968.261 -974.822 -974.822 -981.336 -981.336 -987.802 -987.802 -994.221 -994.221 -1000.59 -1000.59 -1006.92 -1006.92 -1013.2 -1013.2 -1019.44 -1019.44 -1025.63 -1025.63 -1031.78 -1031.78 -1037.88 -1037.88 -1043.94 -1043.94 -1049.96 -1049.96 -1055.93 -1055.93 -1061.87 -1061.87 -1067.76 -1067.76 -1073.61 -1073.61 -1079.42 -1079.42 -1085.19 -1085.19 -1090.92 -1090.92 -1096.61 -1096.61 -1102.26 -1102.26 -1107.87 -1107.87 -1113.45 -1113.45 -1118.99 -1118.99 -1124.49 -1124.49 -1129.95 -1129.95 -1135.37 -1135.37 -1140.76 -1140.76 -1146.12 -1146.12 -1151.43 -1151.43 -1156.72 -1156.72 -1161.97 -1161.97 -1167.18 -1167.18 -1172.36 -1172.36 -1177.5 -1177.5 -1182.62 -1182.62 -1187.69 -1187.69 -1192.74 -1192.74 -1197.76 -1197.76 -1202.74 -1202.74 -1207.69 -1207.69 -1212.61 -1212.61 -1217.49 -1217.49 -1222.35 -1222.35 -1227.18 -1227.18 -1231.97 -1231.97 -1236.74 -1236.74 -1241.47 -1241.47 -1246.18 -1246.18 -1250.86 -1250.86 -1255.51 -1255.51 -1260.13 -1260.13 -1264.72 -1264.72 -1269.29 -1269.29 -1273.83 -1273.83 -1278.34 -1278.34 -1282.82 -1282.82 -1287.28 -1287.28 -1291.71 -1291.71 -1296.11 -1296.11 -1300.49 -1300.49 -1304.84 -1304.84 -1309.17 -1309.17 -1313.47 -1313.47 -1317.74 -1317.74 -1321.99 -1321.99 -1326.22 -1326.22 -1330.42 -1330.42 -1334.6 -1334.6 -1338.76 -1338.76 -1342.89 -1342.89 -1347 -1347 -1351.08 -1351.08 -1355.15 -1355.15 -1359.19 -1359.19 -1363.2 -1363.2 -1367.2 -1367.2 -1371.17 -1371.17 -1375.12 -1375.12 -1379.05 -1379.05 -1382.96 -1382.96 -1386.84 -1386.84 -1390.71 -1390.71 -1394.55 -1394.55 -1398.38 -1398.38 -1402.18 -1402.18 -1405.96 -1405.96 -1409.73 -1409.73 -1413.47 -1413.47 -1417.19 -1417.19 -1420.89 -1420.89 -1424.58 -1424.58 -1428.24 -1428.24 -1431.89 -1431.89 -1435.51 -1435.51 -1439.12 -1439.12 -1442.71 -1442.71 -1446.28 -1446.28 -1449.83 -1449.83 -1453.36 -1453.36 -1456.88 -1456.88 -1460.38 -1460.38 -1463.85 -1463.85 -1467.32 -1467.32 -1470.76 -1470.76 -1474.19 -1474.19 -1477.59 -1477.59 -1480.99 -1480.99 -1484.36 -1484.36 -1487.72 -1487.72 -1491.06 -1491.06 -1494.38 -1494.38 -1497.69 -1497.69 -1500.98 -1500.98 -1504.25 -1504.25 -1507.51 -1507.51 -1510.75 -1510.75 -1513.98 -1513.98 -1517.18 -1517.18 -1520.38 -1520.38 -1523.55 -1523.55 -1526.72 -1526.72 -1529.86 -1529.86 -1532.99 -1532.99 -1536.1 -1536.1 -1539.2 -1539.2 -1542.29 -1542.29 -1545.35 -1545.35 -1548.4 -1548.4 -1551.44 -1551.44 -1554.46 -1554.46 -1557.47 -1557.47 -1560.46 -1560.46 -1563.44 -1563.44 -1566.4 -1566.4 -1569.34 -1569.34 -1572.28 -1572.28 -1575.19 -1575.19 -1578.09 -1578.09 -1580.98 -1580.98 -1583.85 -1583.85 -1586.71 -1586.71 -1589.55 -1589.55 -1592.38 -1592.38 -1595.19 -1595.19 -1597.99 -1597.99 -1600.78 -1600.78 -1603.55 -1603.55 -1606.3 -1606.3 -1609.04 -1609.04 -1611.77 -1611.77 -1614.48 -1614.48 -1617.18 -1617.18 -1619.86 -1619.86 -1622.53 -1622.53 -1625.18 -1625.18 -1627.82 -1627.82 -1630.44 -1630.44 -1633.05 -1633.05 -1635.65 -1635.65 -1638.23 -1638.23 -1640.79 -1640.79 -1643.34 -1643.34 -1645.88 -1645.88 -1648.4 -1648.4 -1650.91 -1650.91 -1653.4 -1653.4 -1655.88 -1655.88 -1658.34 -1658.34 -1660.79 -1660.79 -1663.22 -1663.22 -1665.64 -1665.64 -1668.04 -1668.04 -1670.43 -1670.43 -1672.8 -1672.8 -1675.16 -1675.16 -1677.5 -1677.5 -1679.83 -1679.83 -1682.14 -1682.14 -1684.44 -1684.44 -1686.72 -1686.72 -1688.99 -1688.99 -1691.24 -1691.24 -1693.47 -1693.47 -1695.69 -1695.69 -1697.9 -1697.9 -1700.08 -1700.08 -1702.26 -1702.26 -1704.41 -1704.41 -1706.55 -1706.55 -1708.67 -1708.67 -1710.78 -1710.78 -1712.87 -1712.87 -1714.94 -1714.94 -1717 -1717 -1719.04 -1719.04 -1721.07 -1721.07 -1723.07 -1723.07 -1725.06 -1725.06 -1727.03 -1727.03 -1728.99 -1728.99 -1730.93 -1730.93 -1732.85 -1732.85 -1734.75 -1734.75 -1736.64 -1736.64 -1738.5 -1738.5 -1740.35 -1740.35 -1742.18 -1742.18 -1744 -1744 -1745.79 -1745.79 -1747.57 -1747.57 -1749.32 -1749.32 -1751.06 -1751.06 -1752.78 -1752.78 -1754.48 -1754.48 -1756.16 -1756.16 -1757.82 -1757.82 -1759.46 -1759.46 -1761.09 -1761.09 -1762.69 -1762.69 -1764.27 -1764.27 -1765.83 -1765.83 -1767.37 -1767.37 -1768.89 -1768.89 -1770.39 -1770.39 -1771.87 -1771.87 -1773.33 -1773.33 -1774.76 -1774.76 -1776.18 -1776.18 -1777.57 -1777.57 -1778.94 -1778.94 -1780.29 -1780.29 -1781.62 -1781.62 -1782.92 -1782.92 -1784.2 -1784.2 -1785.46 -1785.46 -1786.69 -1786.69 -1787.9 -1787.9 -1789.09 -1789.09 -1790.26 -1790.26 -1791.4 -1791.4 -1792.51 -1792.51 -1793.6 -1793.6 -1794.67 -1794.67 -1795.71 -1795.71 -1796.73 -1796.73 -1797.72 -1797.72 -1798.68 -1798.68 -1799.62 -1799.62 -1800.53 -1800.53 -1801.42 -1801.42 -1802.28 -1802.28 -1803.11 -1803.11 -1803.92 -1803.92 -1804.7 -1804.7 -1805.45 -1805.45 -1806.17 -1806.17 -1806.87 -1806.87 -1807.53 -1807.53 -1808.17 -1808.17 -1808.78 -1808.78 -1809.36 -1809.36 -1809.91 -1809.91 -1810.43 -1810.43 -1810.92 -1810.92 -1811.37 -1811.37 -1811.8 -1811.8 -1812.2 -1812.2 -1812.57 -1812.57 -1812.9 -1812.9 -1813.2 -1813.2 -1813.47 -1813.47 -1813.71 -1813.71 -1813.92 -1813.92 -1814.09 -1814.09 -1814.23 -1814.23 -1814.33 -1814.33 -1814.4 -1814.4 -1814.44 -1814.44 -1814.44 -1814.44 -1814.4 -1814.4 -1814.33 -1814.33 -1814.23 -1814.23 -1814.09 -1814.09 -1813.91 -1813.91 -1813.69 -1813.69 -1813.44 -1813.44 -1813.15 -1813.15 -1812.82 -1812.82 -1812.46 -1812.46 -1812.06 -1812.06 -1811.61 -1811.61 -1811.13 -1811.13 -1810.61 -1810.61 -1810.05 -1810.05 -1809.44 -1809.44 -1808.8 -1808.8 -1808.12 -1808.12 -1807.39 -1807.39 -1806.62 -1806.62 -1805.81 -1805.81 -1804.96 -1804.96 -1804.06 -1804.06 -1803.12 -1803.12 -1802.14 -1802.14 -1801.11 -1801.11 -1800.04 -1800.04 -1798.92 -1798.92 -1797.76 -1797.76 -1796.55 -1796.55 -1795.3 -1795.3 -1794 -1794 -1792.65 -1792.65 -1791.25 -1791.25 -1789.81 -1789.81 -1788.31 -1788.31 -1786.77 -1786.77 -1785.18 -1785.18 -1783.54 -1783.54 -1781.85 -1781.85 -1780.11 -1780.11 -1778.32 -1778.32 -1776.48 -1776.48 -1774.58 -1774.58 -1772.63 -1772.63 -1770.63 -1770.63 -1768.58 -1768.58 -1766.47 -1766.47 -1764.31 -1764.31 -1762.1 -1762.1 -1759.83 -1759.83 -1757.5 -1757.5 -1755.12 -1755.12 -1752.69 -1752.69 -1750.19 -1750.19 -1747.64 -1747.64 -1745.03 -1745.03 -1742.37 -1742.37 -1739.64 -1739.64 -1736.86 -1736.86 -1734.02 -1734.02 -1731.12 -1731.12 -1728.15 -1728.15 -1725.13 -1725.13 -1722.05 -1722.05 -1718.9 -1718.9 -1715.69 -1715.69 -1712.42 -1712.42 -1709.09 -1709.09 -1705.69 -1705.69 -1702.23 -1702.23 -1698.71 -1698.71 -1695.12 -1695.12 -1691.47 -1691.47 -1687.75 -1687.75 -1683.96 -1683.96 -1680.11 -1680.11 -1676.19 -1676.19 -1672.21 -1672.21 -1668.15 -1668.15 -1664.03 -1664.03 -1659.84 -1659.84 -1655.58 -1655.58 -1651.25 -1651.25 -1646.85 -1646.85 -1642.38 -1642.38 -1637.84 -1637.84 -1633.23 -1633.23 -1628.54 -1628.54 -1623.79 -1623.79 -1618.96 -1618.96 -1614.06 -1614.06 -1609.08 -1609.08 -1604.03 -1604.03 -1598.91 -1598.91 -1593.71 -1593.71 -1588.43 -1588.43 -1583.08 -1583.08 -1577.65 -1577.65 -1572.15 -1572.15 -1566.57 -1566.57 -1560.91 -1560.91 -1555.17 -1555.17 -1549.36 -1549.36 -1543.47 -1543.47 -1537.49 -1537.49 -1531.44 -1531.44 -1525.31 -1525.31 -1519.09 -1519.09 -1512.8 -1512.8 -1506.42 -1506.42 -1499.96 -1499.96 -1493.42 -1493.42 -1486.79 -1486.79 -1480.08 -1480.08 -1473.29 -1473.29 -1466.42 -1466.42 -1459.45 -1459.45 -1452.41 -1452.41 -1445.28 -1445.28 -1438.06 -1438.06 -1430.75 -1430.75 -1423.36 -1423.36 -1415.88 -1415.88 -1408.32 -1408.32 -1400.66 -1400.66 -1392.92 -1392.92 -1385.09 -1385.09 -1377.17 -1377.17 -1369.15 -1369.15 -1361.05 -1361.05 -1352.86 -1352.86 -1344.58 -1344.58 -1336.2 -1336.2 -1327.74 -1327.74 -1319.18 -1319.18 -1310.53 -1310.53 -1301.79 -1301.79 -1292.95 -1292.95 -1284.02 -1284.02 -1274.99 -1274.99 -1265.87 -1265.87 -1256.66 -1256.66 -1247.35 -1247.35 -1237.95 -1237.95 -1228.45 -1228.45 -1218.85 -1218.85 -1209.16 -1209.16 -1199.37 -1199.37 -1189.49 -1189.49 -1179.5 -1179.5 -1169.42 -1169.42 -1159.24 -1159.24 -1148.97 -1148.97 -1138.59 -1138.59 -1128.12 -1128.12 -1117.55 -1117.55 -1106.87 -1106.87 -1096.1 -1096.1 -1085.23 -1085.23 -1074.26 -1074.26 -1063.19 -1063.19 -1052.02 -1052.02 -1040.75 -1040.75 -1029.38 -1029.38 -1017.91 -1017.91 -1006.33 -1006.33 -994.66 -994.66 -982.885 -982.885 -971.008 -971.008 -959.03 -959.03 -946.95 -946.95 -934.769 -934.769 -922.486 -922.486 -910.101 -910.101 -897.614 -897.614 -885.025 
SCALARS solution_1 double 1
LOOKUP_TABLE default