# vtk DataFile Version 3.0
#This file was generated by the deal.II library on 2020/9/1 at 15:06:54
ASCII
DATASET UNSTRUCTURED_GRID

POINTS 2048 double
1.5 0 0
1.59619 0 0
1.59619 0 0
1.69238 0 0
1.69238 0 0
1.78857 0 0
1.78857 0 0
1.88477 0 0
1.88477 0 0
1.98096 0 0
1.98096 0 0
2.07715 0 0
2.07715 0 0
2.17334 0 0
2.17334 0 0
2.26953 0 0
2.26953 0 0
2.36572 0 0
2.36572 0 0
2.46191 0 0
2.46191 0 0
2.55811 0 0
2.55811 0 0
2.6543 0 0
2.6543 0 0
2.75049 0 0
2.75049 0 0
2.84668 0 0
2.84668 0 0
2.94287 0 0
2.94287 0 0
3.03906 0 0
3.03906 0 0
3.13525 0 0
3.13525 0 0
3.23145 0 0
3.23145 0 0
3.32764 0 0
3.32764 0 0
3.42383 0 0
3.42383 0 0
3.52002 0 0
3.52002 0 0
3.61621 0 0
3.61621 0 0
3.7124 0 0
3.7124 0 0
3.80859 0 0
3.80859 0 0
3.90479 0 0
3.90479 0 0
4.00098 0 0
4.00098 0 0
4.09717 0 0
4.09717 0 0
4.19336 0 0
4.19336 0 0
4.28955 0 0
4.28955 0 0
4.38574 0 0
4.38574 0 0
4.48193 0 0
4.48193 0 0
4.57812 0 0
4.57812 0 0
4.67432 0 0
4.67432 0 0
4.77051 0 0
4.77051 0 0
4.8667 0 0
4.8667 0 0
4.96289 0 0
4.96289 0 0
5.05908 0 0
5.05908 0 0
5.15527 0 0
5.15527 0 0
5.25146 0 0
5.25146 0 0
5.34766 0 0
5.34766 0 0
5.44385 0 0
5.44385 0 0
5.54004 0 0
5.54004 0 0
5.63623 0 0
5.63623 0 0
5.73242 0 0
5.73242 0 0
5.82861 0 0
5.82861 0 0
5.9248 0 0
5.9248 0 0
6.021 0 0
6.021 0 0
6.11719 0 0
6.11719 0 0
6.21338 0 0
6.21338 0 0
6.30957 0 0
6.30957 0 0
6.40576 0 0
6.40576 0 0
6.50195 0 0
6.50195 0 0
6.59814 0 0
6.59814 0 0
6.69434 0 0
6.69434 0 0
6.79053 0 0
6.79053 0 0
6.88672 0 0
6.88672 0 0
6.98291 0 0
6.98291 0 0
7.0791 0 0
7.0791 0 0
7.17529 0 0
7.17529 0 0
7.27148 0 0
7.27148 0 0
7.36768 0 0
7.36768 0 0
7.46387 0 0
7.46387 0 0
7.56006 0 0
7.56006 0 0
7.65625 0 0
7.65625 0 0
7.75244 0 0
7.75244 0 0
7.84863 0 0
7.84863 0 0
7.94482 0 0
7.94482 0 0
8.04102 0 0
8.04102 0 0
8.13721 0 0
8.13721 0 0
8.2334 0 0
8.2334 0 0
8.32959 0 0
8.32959 0 0
8.42578 0 0
8.42578 0 0
8.52197 0 0
8.52197 0 0
8.61816 0 0
8.61816 0 0
8.71436 0 0
8.71436 0 0
8.81055 0 0
8.81055 0 0
8.90674 0 0
8.90674 0 0
9.00293 0 0
9.00293 0 0
9.09912 0 0
9.09912 0 0
9.19531 0 0
9.19531 0 0
9.2915 0 0
9.2915 0 0
9.3877 0 0
9.3877 0 0
9.48389 0 0
9.48389 0 0
9.58008 0 0
9.58008 0 0
9.67627 0 0
9.67627 0 0
9.77246 0 0
9.77246 0 0
9.86865 0 0
9.86865 0 0
9.96484 0 0
9.96484 0 0
10.061 0 0
10.061 0 0
10.1572 0 0
10.1572 0 0
10.2534 0 0
10.2534 0 0
10.3496 0 0
10.3496 0 0
10.4458 0 0
10.4458 0 0
10.542 0 0
10.542 0 0
10.6382 0 0
10.6382 0 0
10.7344 0 0
10.7344 0 0
10.8306 0 0
10.8306 0 0
10.9268 0 0
10.9268 0 0
11.0229 0 0
11.0229 0 0
11.1191 0 0
11.1191 0 0
11.2153 0 0
11.2153 0 0
11.3115 0 0
11.3115 0 0
11.4077 0 0
11.4077 0 0
11.5039 0 0
11.5039 0 0
11.6001 0 0
11.6001 0 0
11.6963 0 0
11.6963 0 0
11.7925 0 0
11.7925 0 0
11.8887 0 0
11.8887 0 0
11.9849 0 0
11.9849 0 0
12.0811 0 0
12.0811 0 0
12.1772 0 0
12.1772 0 0
12.2734 0 0
12.2734 0 0
12.3696 0 0
12.3696 0 0
12.4658 0 0
12.4658 0 0
12.562 0 0
12.562 0 0
12.6582 0 0
12.6582 0 0
12.7544 0 0
12.7544 0 0
12.8506 0 0
12.8506 0 0
12.9468 0 0
12.9468 0 0
13.043 0 0
13.043 0 0
13.1392 0 0
13.1392 0 0
13.2354 0 0
13.2354 0 0
13.3315 0 0
13.3315 0 0
13.4277 0 0
13.4277 0 0
13.5239 0 0
13.5239 0 0
13.6201 0 0
13.6201 0 0
13.7163 0 0
13.7163 0 0
13.8125 0 0
13.8125 0 0
13.9087 0 0
13.9087 0 0
14.0049 0 0
14.0049 0 0
14.1011 0 0
14.1011 0 0
14.1973 0 0
14.1973 0 0
14.2935 0 0
14.2935 0 0
14.3896 0 0
14.3896 0 0
14.4858 0 0
14.4858 0 0
14.582 0 0
14.582 0 0
14.6782 0 0
14.6782 0 0
14.7744 0 0
14.7744 0 0
14.8706 0 0
14.8706 0 0
14.9668 0 0
14.9668 0 0
15.063 0 0
15.063 0 0
15.1592 0 0
15.1592 0 0
15.2554 0 0
15.2554 0 0
15.3516 0 0
15.3516 0 0
15.4478 0 0
15.4478 0 0
15.5439 0 0
15.5439 0 0
15.6401 0 0
15.6401 0 0
15.7363 0 0
15.7363 0 0
15.8325 0 0
15.8325 0 0
15.9287 0 0
15.9287 0 0
16.0249 0 0
16.0249 0 0
16.1211 0 0
16.1211 0 0
16.2173 0 0
16.2173 0 0
16.3135 0 0
16.3135 0 0
16.4097 0 0
16.4097 0 0
16.5059 0 0
16.5059 0 0
16.6021 0 0
16.6021 0 0
16.6982 0 0
16.6982 0 0
16.7944 0 0
16.7944 0 0
16.8906 0 0
16.8906 0 0
16.9868 0 0
16.9868 0 0
17.083 0 0
17.083 0 0
17.1792 0 0
17.1792 0 0
17.2754 0 0
17.2754 0 0
17.3716 0 0
17.3716 0 0
17.4678 0 0
17.4678 0 0
17.564 0 0
17.564 0 0
17.6602 0 0
17.6602 0 0
17.7563 0 0
17.7563 0 0
17.8525 0 0
17.8525 0 0
17.9487 0 0
17.9487 0 0
18.0449 0 0
18.0449 0 0
18.1411 0 0
18.1411 0 0
18.2373 0 0
18.2373 0 0
18.3335 0 0
18.3335 0 0
18.4297 0 0
18.4297 0 0
18.5259 0 0
18.5259 0 0
18.6221 0 0
18.6221 0 0
18.7183 0 0
18.7183 0 0
18.8145 0 0
18.8145 0 0
18.9106 0 0
18.9106 0 0
19.0068 0 0
19.0068 0 0
19.103 0 0
19.103 0 0
19.1992 0 0
19.1992 0 0
19.2954 0 0
19.2954 0 0
19.3916 0 0
19.3916 0 0
19.4878 0 0
19.4878 0 0
19.584 0 0
19.584 0 0
19.6802 0 0
19.6802 0 0
19.7764 0 0
19.7764 0 0
19.8726 0 0
19.8726 0 0
19.9688 0 0
19.9688 0 0
20.0649 0 0
20.0649 0 0
20.1611 0 0
20.1611 0 0
20.2573 0 0
20.2573 0 0
20.3535 0 0
20.3535 0 0
20.4497 0 0
20.4497 0 0
20.5459 0 0
20.5459 0 0
20.6421 0 0
20.6421 0 0
20.7383 0 0
20.7383 0 0
20.8345 0 0
20.8345 0 0
20.9307 0 0
20.9307 0 0
21.0269 0 0
21.0269 0 0
21.123 0 0
21.123 0 0
21.2192 0 0
21.2192 0 0
21.3154 0 0
21.3154 0 0
21.4116 0 0
21.4116 0 0
21.5078 0 0
21.5078 0 0
21.604 0 0
21.604 0 0
21.7002 0 0
21.7002 0 0
21.7964 0 0
21.7964 0 0
21.8926 0 0
21.8926 0 0
21.9888 0 0
21.9888 0 0
22.085 0 0
22.085 0 0
22.1812 0 0
22.1812 0 0
22.2773 0 0
22.2773 0 0
22.3735 0 0
22.3735 0 0
22.4697 0 0
22.4697 0 0
22.5659 0 0
22.5659 0 0
22.6621 0 0
22.6621 0 0
22.7583 0 0
22.7583 0 0
22.8545 0 0
22.8545 0 0
22.9507 0 0
22.9507 0 0
23.0469 0 0
23.0469 0 0
23.1431 0 0
23.1431 0 0
23.2393 0 0
23.2393 0 0
23.3354 0 0
23.3354 0 0
23.4316 0 0
23.4316 0 0
23.5278 0 0
23.5278 0 0
23.624 0 0
23.624 0 0
23.7202 0 0
23.7202 0 0
23.8164 0 0
23.8164 0 0
23.9126 0 0
23.9126 0 0
24.0088 0 0
24.0088 0 0
24.105 0 0
24.105 0 0
24.2012 0 0
24.2012 0 0
24.2974 0 0
24.2974 0 0
24.3936 0 0
24.3936 0 0
24.4897 0 0
24.4897 0 0
24.5859 0 0
24.5859 0 0
24.6821 0 0
24.6821 0 0
24.7783 0 0
24.7783 0 0
24.8745 0 0
24.8745 0 0
24.9707 0 0
24.9707 0 0
25.0669 0 0
25.0669 0 0
25.1631 0 0
25.1631 0 0
25.2593 0 0
25.2593 0 0
25.3555 0 0
25.3555 0 0
25.4517 0 0
25.4517 0 0
25.5479 0 0
25.5479 0 0
25.644 0 0
25.644 0 0
25.7402 0 0
25.7402 0 0
25.8364 0 0
25.8364 0 0
25.9326 0 0
25.9326 0 0
26.0288 0 0
26.0288 0 0
26.125 0 0
26.125 0 0
26.2212 0 0
26.2212 0 0
26.3174 0 0
26.3174 0 0
26.4136 0 0
26.4136 0 0
26.5098 0 0
26.5098 0 0
26.606 0 0
26.606 0 0
26.7021 0 0
26.7021 0 0
26.7983 0 0
26.7983 0 0
26.8945 0 0
26.8945 0 0
26.9907 0 0
26.9907 0 0
27.0869 0 0
27.0869 0 0
27.1831 0 0
27.1831 0 0
27.2793 0 0
27.2793 0 0
27.3755 0 0
27.3755 0 0
27.4717 0 0
27.4717 0 0
27.5679 0 0
27.5679 0 0
27.6641 0 0
27.6641 0 0
27.7603 0 0
27.7603 0 0
27.8564 0 0
27.8564 0 0
27.9526 0 0
27.9526 0 0
28.0488 0 0
28.0488 0 0
28.145 0 0
28.145 0 0
28.2412 0 0
28.2412 0 0
28.3374 0 0
28.3374 0 0
28.4336 0 0
28.4336 0 0
28.5298 0 0
28.5298 0 0
28.626 0 0
28.626 0 0
28.7222 0 0
28.7222 0 0
28.8184 0 0
28.8184 0 0
28.9146 0 0
28.9146 0 0
29.0107 0 0
29.0107 0 0
29.1069 0 0
29.1069 0 0
29.2031 0 0
29.2031 0 0
29.2993 0 0
29.2993 0 0
29.3955 0 0
29.3955 0 0
29.4917 0 0
29.4917 0 0
29.5879 0 0
29.5879 0 0
29.6841 0 0
29.6841 0 0
29.7803 0 0
29.7803 0 0
29.8765 0 0
29.8765 0 0
29.9727 0 0
29.9727 0 0
30.0688 0 0
30.0688 0 0
30.165 0 0
30.165 0 0
30.2612 0 0
30.2612 0 0
30.3574 0 0
30.3574 0 0
30.4536 0 0
30.4536 0 0
30.5498 0 0
30.5498 0 0
30.646 0 0
30.646 0 0
30.7422 0 0
30.7422 0 0
30.8384 0 0
30.8384 0 0
30.9346 0 0
30.9346 0 0
31.0308 0 0
31.0308 0 0
31.127 0 0
31.127 0 0
31.2231 0 0
31.2231 0 0
31.3193 0 0
31.3193 0 0
31.4155 0 0
31.4155 0 0
31.5117 0 0
31.5117 0 0
31.6079 0 0
31.6079 0 0
31.7041 0 0
31.7041 0 0
31.8003 0 0
31.8003 0 0
31.8965 0 0
31.8965 0 0
31.9927 0 0
31.9927 0 0
32.0889 0 0
32.0889 0 0
32.1851 0 0
32.1851 0 0
32.2812 0 0
32.2812 0 0
32.3774 0 0
32.3774 0 0
32.4736 0 0
32.4736 0 0
32.5698 0 0
32.5698 0 0
32.666 0 0
32.666 0 0
32.7622 0 0
32.7622 0 0
32.8584 0 0
32.8584 0 0
32.9546 0 0
32.9546 0 0
33.0508 0 0
33.0508 0 0
33.147 0 0
33.147 0 0
33.2432 0 0
33.2432 0 0
33.3394 0 0
33.3394 0 0
33.4355 0 0
33.4355 0 0
33.5317 0 0
33.5317 0 0
33.6279 0 0
33.6279 0 0
33.7241 0 0
33.7241 0 0
33.8203 0 0
33.8203 0 0
33.9165 0 0
33.9165 0 0
34.0127 0 0
34.0127 0 0
34.1089 0 0
34.1089 0 0
34.2051 0 0
34.2051 0 0
34.3013 0 0
34.3013 0 0
34.3975 0 0
34.3975 0 0
34.4937 0 0
34.4937 0 0
34.5898 0 0
34.5898 0 0
34.686 0 0
34.686 0 0
34.7822 0 0
34.7822 0 0
34.8784 0 0
34.8784 0 0
34.9746 0 0
34.9746 0 0
35.0708 0 0
35.0708 0 0
35.167 0 0
35.167 0 0
35.2632 0 0
35.2632 0 0
35.3594 0 0
35.3594 0 0
35.4556 0 0
35.4556 0 0
35.5518 0 0
35.5518 0 0
35.6479 0 0
35.6479 0 0
35.7441 0 0
35.7441 0 0
35.8403 0 0
35.8403 0 0
35.9365 0 0
35.9365 0 0
36.0327 0 0
36.0327 0 0
36.1289 0 0
36.1289 0 0
36.2251 0 0
36.2251 0 0
36.3213 0 0
36.3213 0 0
36.4175 0 0
36.4175 0 0
36.5137 0 0
36.5137 0 0
36.6099 0 0
36.6099 0 0
36.7061 0 0
36.7061 0 0
36.8022 0 0
36.8022 0 0
36.8984 0 0
36.8984 0 0
36.9946 0 0
36.9946 0 0
37.0908 0 0
37.0908 0 0
37.187 0 0
37.187 0 0
37.2832 0 0
37.2832 0 0
37.3794 0 0
37.3794 0 0
37.4756 0 0
37.4756 0 0
37.5718 0 0
37.5718 0 0
37.668 0 0
37.668 0 0
37.7642 0 0
37.7642 0 0
37.8604 0 0
37.8604 0 0
37.9565 0 0
37.9565 0 0
38.0527 0 0
38.0527 0 0
38.1489 0 0
38.1489 0 0
38.2451 0 0
38.2451 0 0
38.3413 0 0
38.3413 0 0
38.4375 0 0
38.4375 0 0
38.5337 0 0
38.5337 0 0
38.6299 0 0
38.6299 0 0
38.7261 0 0
38.7261 0 0
38.8223 0 0
38.8223 0 0
38.9185 0 0
38.9185 0 0
39.0146 0 0
39.0146 0 0
39.1108 0 0
39.1108 0 0
39.207 0 0
39.207 0 0
39.3032 0 0
39.3032 0 0
39.3994 0 0
39.3994 0 0
39.4956 0 0
39.4956 0 0
39.5918 0 0
39.5918 0 0
39.688 0 0
39.688 0 0
39.7842 0 0
39.7842 0 0
39.8804 0 0
39.8804 0 0
39.9766 0 0
39.9766 0 0
40.0728 0 0
40.0728 0 0
40.1689 0 0
40.1689 0 0
40.2651 0 0
40.2651 0 0
40.3613 0 0
40.3613 0 0
40.4575 0 0
40.4575 0 0
40.5537 0 0
40.5537 0 0
40.6499 0 0
40.6499 0 0
40.7461 0 0
40.7461 0 0
40.8423 0 0
40.8423 0 0
40.9385 0 0
40.9385 0 0
41.0347 0 0
41.0347 0 0
41.1309 0 0
41.1309 0 0
41.2271 0 0
41.2271 0 0
[...]
POINT_DATA 2048
SCALARS solution_0 double 1
LOOKUP_TABLE default
9573.47 9432.29 9432.29 9318.82 9318.82 9228.3 9228.3 9156.8 9156.8 9101.07 9101.07 9058.43 9058.43 9026.64 9026.64 9003.85 9003.85 8988.51 8988.51 8979.32 8979.32 8975.19 8975.19 8975.18 8975.18 8978.53 8978.53 8984.55 8984.55 8992.7 8992.7 9002.48 9002.48 9013.47 9013.47 9025.34 9025.34 9037.77 9037.77 9050.5 9050.5 9063.31 9063.31 9076 9076 9088.42 9088.42 9100.42 9100.42 9111.87 9111.87 9122.68 9122.68 9132.76 9132.76 9142.03 9142.03 9150.42 9150.42 9157.89 9157.89 9164.4 9164.4 9169.89 9169.89 9174.35 9174.35 9177.75 9177.75 9180.08 9180.08 9181.31 9181.31 9181.44 9181.44 9180.47 9180.47 9178.38 9178.38 9175.19 9175.19 9170.89 9170.89 9165.49 9165.49 9159 9159 9151.42 9151.42 9142.76 9142.76 9133.03 9133.03 9122.25 9122.25 9110.43 9110.43 9097.58 9097.58 9083.73 9083.73 9068.87 9068.87 9053.04 9053.04 9036.24 9036.24 9018.49 9018.49 8999.81 8999.81 8980.22 8980.22 8959.74 8959.74 8938.37 8938.37 8916.15 8916.15 8893.08 8893.08 8869.19 8869.19 8844.5 8844.5 8819.02 8819.02 8792.76 8792.76 8765.75 8765.75 8738.01 8738.01 8709.55 8709.55 8680.4 8680.4 8650.55 8650.55 8620.05 8620.05 8588.89 8588.89 8557.11 8557.11 8524.71 8524.71 8491.71 8491.71 8458.13 8458.13 8423.99 8423.99 8389.3 8389.3 8354.07 8354.07 8318.33 8318.33 8282.08 8282.08 8245.35 8245.35 8208.14 8208.14 8170.48 8170.48 8132.37 8132.37 8093.84 8093.84 8054.89 8054.89 8015.54 8015.54 7975.8 7975.8 7935.69 7935.69 7895.22 7895.22 7854.41 7854.41 7813.26 7813.26 7771.79 7771.79 7730.01 7730.01 7687.93 7687.93 7645.57 7645.57 7602.93 7602.93 7560.03 7560.03 7516.89 7516.89 7473.5 7473.5 7429.89 7429.89 7386.06 7386.06 7342.03 7342.03 7297.8 7297.8 7253.38 7253.38 7208.79 7208.79 7164.04 7164.04 7119.13 7119.13 7074.07 7074.07 7028.88 7028.88 6983.56 6983.56 6938.12 6938.12 6892.57 6892.57 6846.92 6846.92 6801.18 6801.18 6755.35 6755.35 6709.45 6709.45 6663.48 6663.48 6617.45 6617.45 6571.37 6571.37 6525.25 6525.25 6479.09 6479.09 6432.89 6432.89 6386.68 6386.68 6340.45 6340.45 6294.21 6294.21 6247.97 6247.97 6201.73 6201.73 6155.51 6155.51 6109.3 6109.3 6063.11 6063.11 6016.96 6016.96 5970.84 5970.84 5924.76 5924.76 5878.72 5878.72 5832.74 5832.74 5786.82 5786.82 5740.96 5740.96 5695.17 5695.17 5649.45 5649.45 5603.81 5603.81 5558.25 5558.25 5512.78 5512.78 5467.4 5467.4 5422.12 5422.12 5376.93 5376.93 5331.86 5331.86 5286.89 5286.89 5242.04 5242.04 5197.3 5197.3 5152.69 5152.69 5108.2 5108.2 5063.84 5063.84 5019.61 5019.61 4975.52 4975.52 4931.57 4931.57 4887.76 4887.76 4844.1 4844.1 4800.58 4800.58 4757.22 4757.22 4714.01 4714.01 4670.96 4670.96 4628.07 4628.07 4585.35 4585.35 4542.79 4542.79 4500.4 4500.4 4458.18 4458.18 4416.14 4416.14 4374.27 4374.27 4332.58 4332.58 4291.07 4291.07 4249.74 4249.74 4208.6 4208.6 4167.64 4167.64 4126.87 4126.87 4086.3 4086.3 4045.91 4045.91 4005.72 4005.72 3965.73 3965.73 3925.93 3925.93 3886.33 3886.33 3846.93 3846.93 3807.74 3807.74 3768.74 3768.74 3729.96 3729.96 3691.38 3691.38 3653 3653 3614.83 3614.83 3576.88 3576.88 3539.13 3539.13 3501.59 3501.59 3464.27 3464.27 3427.16 3427.16 3390.27 3390.27 3353.59 3353.59 3317.12 3317.12 3280.87 3280.87 3244.84 3244.84 3209.03 3209.03 3173.44 3173.44 3138.06 3138.06 3102.91 3102.91 3067.97 3067.97 3033.25 3033.25 2998.76 2998.76 2964.49 2964.49 2930.43 2930.43 2896.6 2896.6 2863 2863 2829.61 2829.61 2796.45 2796.45 2763.5 2763.5 2730.79 2730.79 2698.29 2698.29 2666.02 2666.02 2633.97 2633.97 2602.14 2602.14 2570.53 2570.53 2539.15 2539.15 2507.99 2507.99 2477.05 2477.05 2446.34 2446.34 2415.85 2415.85 2385.58 2385.58 2355.53 2355.53 2325.7 2325.7 2296.09 2296.09 2266.7 2266.7 2237.54 2237.54 2208.59 2208.59 2179.86 2179.86 2151.35 2151.35 2123.07 2123.07 2094.99 2094.99 2067.14 2067.14 2039.51 2039.51 2012.09 2012.09 1984.88 1984.88 1957.9 1957.9 1931.12 1931.12 1904.57 1904.57 1878.22 1878.22 1852.09 1852.09 1826.18 1826.18 1800.47 1800.47 1774.98 1774.98 1749.69 1749.69 1724.62 1724.62 1699.75 1699.75 1675.1 1675.1 1650.65 1650.65 1626.41 1626.41 1602.37 1602.37 1578.54 1578.54 1554.92 1554.92 1531.5 1531.5 1508.28 1508.28 1485.26 1485.26 1462.45 1462.45 1439.83 1439.83 1417.42 1417.42 1395.2 1395.2 1373.18 1373.18 1351.36 1351.36 1329.73 1329.73 1308.3 1308.3 1287.07 1287.07 1266.02 1266.02 1245.17 1245.17 1224.51 1224.51 1204.04 1204.04 1183.76 1183.76 1163.67 1163.67 1143.77 1143.77 1124.05 1124.05 1104.52 1104.52 1085.17 1085.17 1066.01 1066.01 1047.02 1047.02 1028.22 1028.22 1009.6 1009.6 991.165 991.165 972.903 972.903 954.819 954.819 936.911 936.911 919.179 919.179 901.621 901.621 884.236 884.236 867.023 867.023 849.982 849.982 833.11 833.11 816.408 816.408 799.874 799.874 783.506 783.506 767.305 767.305 751.268 751.268 735.396 735.396 719.686 719.686 704.137 704.137 688.749 688.749 673.521 673.521 658.451 658.451 643.539 643.539 628.782 628.782 614.181 614.181 599.734 599.734 585.441 585.441 571.299 571.299 557.308 557.308 543.467 543.467 529.775 529.775 516.231 516.231 502.833 502.833 489.581 489.581 476.474 476.474 463.51 463.51 450.688 450.688 438.008 438.008 425.468 425.468 413.068 413.068 400.805 400.805 388.68 388.68 376.691 376.691 364.836 364.836 353.116 353.116 341.529 341.529 330.074 330.074 318.749 318.749 307.555 307.555 296.489 296.489 285.551 285.551 274.739 274.739 264.054 264.054 253.493 253.493 243.055 243.055 232.741 232.741 222.548 222.548 212.475 212.475 202.522 202.522 192.688 192.688 182.972 182.972 173.372 173.372 163.887 163.887 154.517 154.517 145.261 145.261 136.118 136.118 127.086 127.086 118.165 118.165 109.354 109.354 100.651 100.651 92.0561 92.0561 83.5682 83.5682 75.1861 75.1861 66.909 66.909 58.7359 58.7359 50.6659 50.6659 42.698 42.698 34.8312 34.8312 27.0648 27.0648 19.3976 19.3976 11.8289 11.8289 4.35772 4.35772 -3.01688 -3.01688 -10.2958 -10.2958 -17.4799 -17.4799 -24.5701 -24.5701 -31.5673 -31.5673 -38.4724 -38.4724 -45.2863 -45.2863 -52.0098 -52.0098 -58.6438 -58.6438 -65.1891 -65.1891 -71.6467 -71.6467 -78.0174 -78.0174 -84.3021 -84.3021 -90.5015 -90.5015 -96.6166 -96.6166 -102.648 -102.648 -108.597 -108.597 -114.464 -114.464 -120.25 -120.25 -125.956 -125.956 -131.582 -131.582 -137.13 -137.13 -142.6 -142.6 -147.992 -147.992 -153.309 -153.309 -158.55 -158.55 -163.717 -163.717 -168.81 -168.81 -173.829 -173.829 -178.776 -178.776 -183.652 -183.652 -188.457 -188.457 -193.192 -193.192 -197.857 -197.857 -202.454 -202.454 -206.983 -206.983 -211.445 -211.445 -215.841 -215.841 -220.171 -220.171 -224.436 -224.436 -228.637 -228.637 -232.774 -232.774 -236.848 -236.848 -240.861 -240.861 -244.812 -244.812 -248.702 -248.702 -252.532 -252.532 -256.302 -256.302 -260.014 -260.014 -263.668 -263.668 -267.264 -267.264 -270.804 -270.804 -274.288 -274.288 -277.716 -277.716 -281.089 -281.089 -284.408 -284.408 -287.673 -287.673 -290.886 -290.886 -294.046 -294.046 -297.155 -297.155 -300.213 -300.213 -303.22 -303.22 -306.177 -306.177 -309.085 -309.085 -311.944 -311.944 -314.755 -314.755 -317.519 -317.519 -320.235 -320.235 -322.906 -322.906 -325.53 -325.53 -328.11 -328.11 -330.644 -330.644 -333.135 -333.135 -335.581 -335.581 -337.985 -337.985 -340.347 -340.347 -342.666 -342.666 -344.944 -344.944 -347.181 -347.181 -349.378 -349.378 -351.535 -351.535 -353.652 -353.652 -355.731 -355.731 -357.771 -357.771 -359.773 -359.773 -361.738 -361.738 -363.666 -363.666 -365.558 -365.558 -367.414 -367.414 -369.235 -369.235 -371.02 -371.02 -372.771 -372.771 -374.488 -374.488 -376.172 -376.172 -377.822 -377.822 -379.44 -379.44 -381.025 -381.025 -382.579 -382.579 -384.101 -384.101 -385.593 -385.593 -387.054 -387.054 -388.485 -388.485 -389.886 -389.886 -391.258 -391.258 -392.601 -392.601 -393.916 -393.916 -395.203 -395.203 -396.463 -396.463 -397.695 -397.695 -398.9 -398.9 -400.08 -400.08 -401.233 -401.233 -402.36 -402.36 -403.462 -403.462 -404.54 -404.54 -405.593 -405.593 -406.621 -406.621 -407.626 -407.626 -408.608 -408.608 -409.566 -409.566 -410.502 -410.502 -411.416 -411.416 -412.307 -412.307 -413.177 -413.177 -414.026 -414.026 -414.853 -414.853 -415.66 -415.66 -416.447 -416.447 -417.213 -417.213 -417.96 -417.96 -418.688 -418.688 -419.396 -419.396 -420.086 -420.086 -420.758 -420.758 -421.411 -421.411 -422.046 -422.046 -422.664 -422.664 -423.265 -423.265 -423.849 -423.849 -424.416 -424.416 -424.967 -424.967 -425.501 -425.501 -426.02 -426.02 -426.524 -426.524 -427.012 -427.012 -427.485 -427.485 -427.944 -427.944 -428.388 -428.388 -428.818 -428.818 -429.234 -429.234 -429.636 -429.636 -430.025 -430.025 -430.401 -430.401 -430.764 -430.764 -431.114 -431.114 -431.452 -431.452 -431.778 -431.778 -432.092 -432.092 -432.394 -432.394 -432.684 -432.684 -432.963 -432.963 -433.232 -433.232 -433.489 -433.489 -433.736 -433.736 -433.973 -433.973 -434.199 -434.199 -434.416 -434.416 -434.622 -434.622 -434.82 -434.82 -435.008 -435.008 -435.187 -435.187 -435.357 -435.357 -435.518 -435.518 -435.671 -435.671 -435.815 -435.815 -435.952 -435.952 -436.08 -436.08 -436.201 -436.201 -436.314 -436.314 -436.42 -436.42 -436.519 -436.519 -436.61 -436.61 -436.695 -436.695 -436.773 -436.773 -436.845 -436.845 -436.91 -436.91 -436.969 -436.969 -437.022 -437.022 -437.07 -437.07 -437.112 -437.112 -437.148 -437.148 -437.179 -437.179 -437.204 -437.204 -437.225 -437.225 -437.241 -437.241 -437.252 -437.252 -437.259 -437.259 -437.261 -437.261 -437.259 -437.259 -437.252 -437.252 -437.242 -437.242 -437.228 -437.228 -437.21 -437.21 -437.188 -437.188 -437.163 -437.163 -437.135 -437.135 -437.103 -437.103 -437.069 -437.069 -437.031 -437.031 -436.991 -436.991 -436.948 -436.948 -436.903 -436.903 -436.854 -436.854 -436.804 -436.804 -436.752 -436.752 -436.697 -436.697 -436.64 -436.64 -436.582 -436.582 -436.522 -436.522 -436.46 -436.46 -436.396 -436.396 -436.331 -436.331 -436.265 -436.265 -436.198 -436.198 -436.129 -436.129 -436.06 -436.06 -435.989 -435.989 -435.918 -435.918 -435.846 -435.846 -435.773 -435.773 -435.7 -435.7 -435.626 -435.626 -435.552 -435.552 -435.478 -435.478 -435.404 -435.404 -435.329 -435.329 -435.255 -435.255 -435.18 -435.18 -435.106 -435.106 -435.032 -435.032 -434.958 -434.958 -434.885 -434.885 -434.812 -434.812 -434.74 -434.74 -434.669 -434.669 -434.598 -434.598 -434.528 -434.528 -434.459 -434.459 -434.39 -434.39 -434.323 -434.323 -434.257 -434.257 -434.192 -434.192 -434.128 -434.128 -434.066 -434.066 -434.005 -434.005 -433.945 -433.945 -433.887 -433.887 -433.83 -433.83 -433.775 -433.775 -433.722 -433.722 -433.67 -433.67 -433.62 -433.62 -433.572 -433.572 -433.526 -433.526 -433.482 -433.482 -433.44 -433.44 -433.4 -433.4 -433.362 -433.362 -433.326 -433.326 -433.292 -433.292 -433.261 -433.261 -433.232 -433.232 -433.205 -433.205 -433.181 -433.181 -433.159 -433.159 -433.14 -433.14 -433.123 -433.123 -433.109 -433.109 -433.098 -433.098 -433.089 -433.089 -433.083 -433.083 -433.079 -433.079 -433.079 -433.079 -433.081 -433.081 -433.086 -433.086 -433.094 -433.094 -433.105 -433.105 -433.119 -433.119 -433.136 -433.136 -433.156 -433.156 -433.179 -433.179 -433.206 -433.206 -433.235 -433.235 -433.268 -433.268 -433.303 -433.303 -433.343 -433.343 -433.385 -433.385 -433.43 -433.43 -433.479 -433.479 -433.532 -433.532 -433.587 -433.587 -433.646 -433.646 -433.709 -433.709 -433.775 -433.775 -433.844 -433.844 -433.917 -433.917 -433.994 -433.994 -434.074 -434.074 -434.157 -434.157 -434.244 -434.244 -434.335 -434.335 -434.429 -434.429 -434.527 -434.527 -434.628 -434.628 -434.734 -434.734 -434.842 -434.842 -434.955 -434.955 -435.071 -435.071 -435.191 -435.191 -435.315 -435.315 -435.442 -435.442 -435.574 -435.574 -435.708 -435.708 -435.847 -435.847 -435.99 -435.99 -436.136 -436.136 -436.286 -436.286 -436.44 -436.44 -436.597 -436.597 -436.759 -436.759 -436.924 -436.924 -437.093 -437.093 -437.266 -437.266 -437.442 -437.442 -437.623 -437.623 -437.807 -437.807 -437.995 -437.995 -438.187 -438.187 -438.383 -438.383 -438.583 -438.583 -438.786 -438.786 -438.993 -438.993 -439.204 -439.204 -439.419 -439.419 -439.638 -439.638 -439.86 -439.86 -440.086 -440.086 -440.316 -440.316 -440.55 -440.55 -440.788 -440.788 -441.029 -441.029 -441.274 -441.274 -441.523 -441.523 -441.775 -441.775 -442.031 -442.031 -442.291 -442.291 -442.555 -442.555 -442.822 -442.822 -443.093 -443.093 -443.367 -443.367 -443.645 -443.645 -443.927 -443.927 -444.212 -444.212 -444.501 -444.501 -444.794 -444.794 -445.09 -445.09 -445.389 -445.389 -445.692 -445.692 -445.998 -445.998 -446.308 -446.308 -446.622 -446.622 -446.938 -446.938 -447.258 -447.258 -447.581 -447.581 -447.908 -447.908 -448.238 -448.238 -448.571 -448.571 -448.908 -448.908 -449.247 -449.247 -449.59 -449.59 -449.936 -449.936 -450.285 -450.285 -450.637 -450.637 -450.992 -450.992 -451.35 -451.35 -451.711 -451.711 -452.075 -452.075 -452.442 -452.442 -452.812 -452.812 -453.185 -453.185 -453.56 -453.56 -453.938 -453.938 -454.319 -454.319 -454.702 -454.702 -455.088 -455.088 -455.477 -455.477 -455.868 -455.868 -456.261 -456.261 -456.657 -456.657 -457.055 -457.055 -457.456 -457.456 -457.858 -457.858 -458.263 -458.263 -458.671 -458.671 -459.08 -459.08 -459.491 -459.491 -459.904 -459.904 -460.319 -460.319 -460.736 -460.736 -461.155 -461.155 -461.575 -461.575 -461.997 -461.997 -462.421 -462.421 -462.846 -462.846 -463.273 -463.273 -463.701 -463.701 -464.13 -464.13 -464.561 -464.561 -464.993 -464.993 -465.425 -465.425 -465.859 -465.859 -466.294 -466.294 -466.729 -466.729 -467.166 -467.166 -467.603 -467.603 -468.04 -468.04 -468.478 -468.478 -468.917 -468.917 -469.355 -469.355 -469.794 -469.794 -470.233 -470.233 -470.672 -470.672 -471.111 -471.111 -471.55 -471.55 -471.989 -471.989 -472.427 -472.427 -472.865 -472.865 -473.302 -473.302 -473.738 -473.738 -474.174 -474.174 -474.609 -474.609 -475.042 -475.042 -475.475 -475.475 -475.906 -475.906 -476.336 -476.336 -476.765 -476.765 -477.192 -477.192 -477.617 -477.617 -478.041 -478.041 -478.462 -478.462 -478.882 -478.882 -479.299 -479.299 -479.714 -479.714 -480.126 -480.126 -480.536 -480.536 -480.944 -480.944 -481.348 -481.348 -481.75 -481.75 -482.149 -482.149 -482.544 -482.544 -482.936 -482.936 -483.325 -483.325 -483.71 -483.71 -484.092 -484.092 -484.469 -484.469 -484.843 -484.843 -485.213 -485.213 -485.578 -485.578 -485.939 -485.939 -486.296 -486.296 -486.648 -486.648 -486.995 -486.995 -487.338 -487.338 -487.675 -487.675 -488.008 -488.008 -488.335 -488.335 -488.657 -488.657 -488.973 -488.973 -489.283 -489.283 -489.588 -489.588 -489.887 -489.887 -490.18 -490.18 -490.466 -490.466 -490.746 -490.746 -491.02 -491.02 -491.287 -491.287 -491.547 -491.547 -491.8 -491.8 -492.047 -492.047 -492.286 -492.286 -492.517 -492.517 -492.741 -492.741 -492.958 -492.958 -493.166 -493.166 -493.367 -493.367 -493.559 -493.559 -493.743 -493.743 -493.919 -493.919 -494.085 -494.085 -494.244 -494.244 -494.393 -494.393 -494.533 -494.533 -494.663 -494.663 -494.784 -494.784 -494.896 -494.896 -494.997 -494.997 -495.088 -495.088 -495.17 -495.17 -495.24 -495.24 -495.3 -495.3 -495.349 -495.349 -495.387 -495.387 -495.414 -495.414 -495.429 -495.429 -495.433 -495.433 -495.425 -495.425 -495.404 -495.404 -495.371 -495.371 -495.326 -495.326 -495.268 -495.268 -495.196 -495.196 -495.112 -495.112 -495.014 -495.014 -494.902 -494.902 -494.776 -494.776 -494.635 -494.635 -494.481 -494.481 -494.311 -494.311 -494.126 -494.126 -493.926 -493.926 -493.711 -493.711 -493.479 -493.479 -493.231 -493.231 -492.967 -492.967 -492.686 -492.686 -492.388 -492.388 -492.073 -492.073 -491.74 -491.74 -491.39 -491.39 -491.021 -491.021 -490.633 -490.633 -490.227 -490.227 -489.802 -489.802 -489.357 -489.357 -488.893 -488.893 -488.409 -488.409 -487.904 -487.904 -487.379 -487.379 -486.833 -486.833 -486.265 -486.265 -485.676 -485.676 -485.065 -485.065 -484.431 -484.431 -483.775 -483.775 -483.096 -483.096 -482.394 -482.394 -481.669 -481.669 -480.919 -480.919 -480.145 -480.145 -479.346 -479.346 -478.523 -478.523 -477.674 -477.674 -476.8 -476.8 -475.899 -475.899 -474.973 -474.973 -474.019 -474.019 -473.039 -473.039 -472.031 -472.031 -470.996 -470.996 -469.932 -469.932 -468.84 -468.84 -467.72 -467.72 -466.57 -466.57 -465.39 -465.39 -464.181 -464.181 -462.942 -462.942 -461.672 -461.672 -460.371 -460.371 -459.038 -459.038 -457.674 -457.674 -456.278 -456.278 -454.85 -454.85 -453.388 -453.388 -451.894 -451.894 -450.366 -450.366 -448.804 -448.804 -447.208 -447.208 -445.577 -445.577 -443.911 -443.911 -442.209 -442.209 -440.472 -440.472 -438.699 -438.699 -436.889 -436.889 -435.042 -435.042 -433.157 -433.157 -431.235 -431.235 -429.275 -429.275 -427.276 -427.276 -425.238 -425.238 -423.161 -423.161 -421.044 -421.044 -418.887 -418.887 -416.689 -416.689 -414.45 -414.45 -412.17 -412.17 -409.848 -409.848 -407.484 -407.484 -405.078 -405.078 -402.628 -402.628 -400.135 -400.135 -397.598 -397.598 -395.017 -395.017 -392.391 -392.391 -389.72 -389.72 -387.004 -387.004 -384.242 -384.242 -381.433 -381.433 -378.577 -378.577 -375.675 -375.675 -372.724 -372.724 -369.726 -369.726 -366.679 -366.679 -363.583 -363.583 -360.438 -360.438 -357.243 -357.243 -353.997 -353.997 -350.701 -350.701 -347.354 -347.354 -343.955 -343.955 -340.504 -340.504 -337.001 -337.001 -333.445 -333.445 -329.836 -329.836 -326.172 -326.172 -322.455 -322.455 -318.683 -318.683 -314.855 -314.855 -310.972 -310.972 -307.034 -307.034 -303.038 -303.038 -298.986 -298.986 -294.876 -294.876 -290.709 -290.709 -286.483 -286.483 -282.198 -282.198 -277.855 -277.855 -273.451 -273.451 -268.988 -268.988 -264.464 -264.464 -259.879 -259.879 -255.232 -255.232 -250.524 -250.524 -245.753 -245.753 -240.92 -240.92 -236.023 -236.023 -231.062 -231.062 -226.038 -226.038 -220.948 -220.948 -215.794 -215.794 -210.574 -210.574 -205.288 -205.288 -199.936 
SCALARS solution_1 double 1
LOOKUP_TABLE default