# vtk DataFile Version 3.0
#This file was generated by the deal.II library on 2020/9/1 at 15:08:12
ASCII
DATASET UNSTRUCTURED_GRID

POINTS 2048 double
1.5 0 0
1.59619 0 0
1.59619 0 0
1.69238 0 0
1.69238 0 0
1.78857 0 0
1.78857 0 0
1.88477 0 0
1.88477 0 0
1.98096 0 0
1.98096 0 0
2.07715 0 0
2.07715 0 0
2.17334 0 0
2.17334 0 0
2.26953 0 0
2.26953 0 0
2.36572 0 0
2.36572 0 0
2.46191 0 0
2.46191 0 0
2.55811 0 0
2.55811 0 0
2.6543 0 0
2.6543 0 0
2.75049 0 0
2.75049 0 0
2.84668 0 0
2.84668 0 0
2.94287 0 0
2.94287 0 0
3.03906 0 0
3.03906 0 0
3.13525 0 0
3.13525 0 0
3.23145 0 0
3.23145 0 0
3.32764 0 0
3.32764 0 0
3.42383 0 0
3.42383 0 0
3.52002 0 0
3.52002 0 0
3.61621 0 0
3.61621 0 0
3.7124 0 0
3.7124 0 0
3.80859 0 0
3.80859 0 0
3.90479 0 0
3.90479 0 0
4.00098 0 0
4.00098 0 0
4.09717 0 0
4.09717 0 0
4.19336 0 0
4.19336 0 0
4.28955 0 0
4.28955 0 0
4.38574 0 0
4.38574 0 0
4.48193 0 0
4.48193 0 0
4.57812 0 0
4.57812 0 0
4.67432 0 0
4.67432 0 0
4.77051 0 0
4.77051 0 0
4.8667 0 0
4.8667 0 0
4.96289 0 0
4.96289 0 0
5.05908 0 0
5.05908 0 0
5.15527 0 0
5.15527 0 0
5.25146 0 0
5.25146 0 0
5.34766 0 0
5.34766 0 0
5.44385 0 0
5.44385 0 0
5.54004 0 0
5.54004 0 0
5.63623 0 0
5.63623 0 0
5.73242 0 0
5.73242 0 0
5.82861 0 0
5.82861 0 0
5.9248 0 0
5.9248 0 0
6.021 0 0
6.021 0 0
6.11719 0 0
6.11719 0 0
6.21338 0 0
6.21338 0 0
6.30957 0 0
6.30957 0 0
6.40576 0 0
6.40576 0 0
6.50195 0 0
6.50195 0 0
6.59814 0 0
6.59814 0 0
6.69434 0 0
6.69434 0 0
6.79053 0 0
6.79053 0 0
6.88672 0 0
6.88672 0 0
6.98291 0 0
6.98291 0 0
7.0791 0 0
7.0791 0 0
7.17529 0 0
7.17529 0 0
7.27148 0 0
7.27148 0 0
7.36768 0 0
7.36768 0 0
7.46387 0 0
7.46387 0 0
7.56006 0 0
7.56006 0 0
7.65625 0 0
7.65625 0 0
7.75244 0 0
7.75244 0 0
7.84863 0 0
7.84863 0 0
7.94482 0 0
7.94482 0 0
8.04102 0 0
8.04102 0 0
8.13721 0 0
8.13721 0 0
8.2334 0 0
8.2334 0 0
8.32959 0 0
8.32959 0 0
8.42578 0 0
8.42578 0 0
8.52197 0 0
8.52197 0 0
8.61816 0 0
8.61816 0 0
8.71436 0 0
8.71436 0 0
8.81055 0 0
8.81055 0 0
8.90674 0 0
8.90674 0 0
9.00293 0 0
9.00293 0 0
9.09912 0 0
9.09912 0 0
9.19531 0 0
9.19531 0 0
9.2915 0 0
9.2915 0 0
9.3877 0 0
9.3877 0 0
9.48389 0 0
9.48389 0 0
9.58008 0 0
9.58008 0 0
9.67627 0 0
9.67627 0 0
9.77246 0 0
9.77246 0 0
9.86865 0 0
9.86865 0 0
9.96484 0 0
9.96484 0 0
10.061 0 0
10.061 0 0
10.1572 0 0
10.1572 0 0
10.2534 0 0
10.2534 0 0
10.3496 0 0
10.3496 0 0
10.4458 0 0
10.4458 0 0
10.542 0 0
10.542 0 0
10.6382 0 0
10.6382 0 0
10.7344 0 0
10.7344 0 0
10.8306 0 0
10.8306 0 0
10.9268 0 0
10.9268 0 0
11.0229 0 0
11.0229 0 0
11.1191 0 0
11.1191 0 0
11.2153 0 0
11.2153 0 0
11.3115 0 0
11.3115 0 0
11.4077 0 0
11.4077 0 0
11.5039 0 0
11.5039 0 0
11.6001 0 0
11.6001 0 0
11.6963 0 0
11.6963 0 0
11.7925 0 0
11.7925 0 0
11.8887 0 0
11.8887 0 0
11.9849 0 0
11.9849 0 0
12.0811 0 0
12.0811 0 0
12.1772 0 0
12.1772 0 0
12.2734 0 0
12.2734 0 0
12.3696 0 0
12.3696 0 0
12.4658 0 0
12.4658 0 0
12.562 0 0
12.562 0 0
12.6582 0 0
12.6582 0 0
12.7544 0 0
12.7544 0 0
12.8506 0 0
12.8506 0 0
12.9468 0 0
12.9468 0 0
13.043 0 0
13.043 0 0
13.1392 0 0
13.1392 0 0
13.2354 0 0
13.2354 0 0
13.3315 0 0
13.3315 0 0
13.4277 0 0
13.4277 0 0
13.5239 0 0
13.5239 0 0
13.6201 0 0
13.6201 0 0
13.7163 0 0
13.7163 0 0
13.8125 0 0
13.8125 0 0
13.9087 0 0
13.9087 0 0
14.0049 0 0
14.0049 0 0
14.1011 0 0
14.1011 0 0
14.1973 0 0
14.1973 0 0
14.2935 0 0
14.2935 0 0
14.3896 0 0
14.3896 0 0
14.4858 0 0
14.4858 0 0
14.582 0 0
14.582 0 0
14.6782 0 0
14.6782 0 0
14.7744 0 0
14.7744 0 0
14.8706 0 0
14.8706 0 0
14.9668 0 0
14.9668 0 0
15.063 0 0
15.063 0 0
15.1592 0 0
15.1592 0 0
15.2554 0 0
15.2554 0 0
15.3516 0 0
15.3516 0 0
15.4478 0 0
15.4478 0 0
15.5439 0 0
15.5439 0 0
15.6401 0 0
15.6401 0 0
15.7363 0 0
15.7363 0 0
15.8325 0 0
15.8325 0 0
15.9287 0 0
15.9287 0 0
16.0249 0 0
16.0249 0 0
16.1211 0 0
16.1211 0 0
16.2173 0 0
16.2173 0 0
16.3135 0 0
16.3135 0 0
16.4097 0 0
16.4097 0 0
16.5059 0 0
16.5059 0 0
16.6021 0 0
16.6021 0 0
16.6982 0 0
16.6982 0 0
16.7944 0 0
16.7944 0 0
16.8906 0 0
16.8906 0 0
16.9868 0 0
16.9868 0 0
17.083 0 0
17.083 0 0
17.1792 0 0
17.1792 0 0
17.2754 0 0
17.2754 0 0
17.3716 0 0
17.3716 0 0
17.4678 0 0
17.4678 0 0
17.564 0 0
17.564 0 0
17.6602 0 0
17.6602 0 0
17.7563 0 0
17.7563 0 0
17.8525 0 0
17.8525 0 0
17.9487 0 0
17.9487 0 0
18.0449 0 0
18.0449 0 0
18.1411 0 0
18.1411 0 0
18.2373 0 0
18.2373 0 0
18.3335 0 0
18.3335 0 0
18.4297 0 0
18.4297 0 0
18.5259 0 0
18.5259 0 0
18.6221 0 0
18.6221 0 0
18.7183 0 0
18.7183 0 0
18.8145 0 0
18.8145 0 0
18.9106 0 0
18.9106 0 0
19.0068 0 0
19.0068 0 0
19.103 0 0
19.103 0 0
19.1992 0 0
19.1992 0 0
19.2954 0 0
19.2954 0 0
19.3916 0 0
19.3916 0 0
19.4878 0 0
19.4878 0 0
19.584 0 0
19.584 0 0
19.6802 0 0
19.6802 0 0
19.7764 0 0
19.7764 0 0
19.8726 0 0
19.8726 0 0
19.9688 0 0
19.9688 0 0
20.0649 0 0
20.0649 0 0
20.1611 0 0
20.1611 0 0
20.2573 0 0
20.2573 0 0
20.3535 0 0
20.3535 0 0
20.4497 0 0
20.4497 0 0
20.5459 0 0
20.5459 0 0
20.6421 0 0
20.6421 0 0
20.7383 0 0
20.7383 0 0
20.8345 0 0
20.8345 0 0
20.9307 0 0
20.9307 0 0
21.0269 0 0
21.0269 0 0
21.123 0 0
21.123 0 0
21.2192 0 0
21.2192 0 0
21.3154 0 0
21.3154 0 0
21.4116 0 0
21.4116 0 0
21.5078 0 0
21.5078 0 0
21.604 0 0
21.604 0 0
21.7002 0 0
21.7002 0 0
21.7964 0 0
21.7964 0 0
21.8926 0 0
21.8926 0 0
21.9888 0 0
21.9888 0 0
22.085 0 0
22.085 0 0
22.1812 0 0
22.1812 0 0
22.2773 0 0
22.2773 0 0
22.3735 0 0
22.3735 0 0
22.4697 0 0
22.4697 0 0
22.5659 0 0
22.5659 0 0
22.6621 0 0
22.6621 0 0
22.7583 0 0
22.7583 0 0
22.8545 0 0
22.8545 0 0
22.9507 0 0
22.9507 0 0
23.0469 0 0
23.0469 0 0
23.1431 0 0
23.1431 0 0
23.2393 0 0
23.2393 0 0
23.3354 0 0
23.3354 0 0
23.4316 0 0
23.4316 0 0
23.5278 0 0
23.5278 0 0
23.624 0 0
23.624 0 0
23.7202 0 0
23.7202 0 0
23.8164 0 0
23.8164 0 0
23.9126 0 0
23.9126 0 0
24.0088 0 0
24.0088 0 0
24.105 0 0
24.105 0 0
24.2012 0 0
24.2012 0 0
24.2974 0 0
24.2974 0 0
24.3936 0 0
24.3936 0 0
24.4897 0 0
24.4897 0 0
24.5859 0 0
24.5859 0 0
24.6821 0 0
24.6821 0 0
24.7783 0 0
24.7783 0 0
24.8745 0 0
24.8745 0 0
24.9707 0 0
24.9707 0 0
25.0669 0 0
25.0669 0 0
25.1631 0 0
25.1631 0 0
25.2593 0 0
25.2593 0 0
25.3555 0 0
25.3555 0 0
25.4517 0 0
25.4517 0 0
25.5479 0 0
25.5479 0 0
25.644 0 0
25.644 0 0
25.7402 0 0
25.7402 0 0
25.8364 0 0
25.8364 0 0
25.9326 0 0
25.9326 0 0
26.0288 0 0
26.0288 0 0
26.125 0 0
26.125 0 0
26.2212 0 0
26.2212 0 0
26.3174 0 0
26.3174 0 0
26.4136 0 0
26.4136 0 0
26.5098 0 0
26.5098 0 0
26.606 0 0
26.606 0 0
26.7021 0 0
26.7021 0 0
26.7983 0 0
26.7983 0 0
26.8945 0 0
26.8945 0 0
26.9907 0 0
26.9907 0 0
27.0869 0 0
27.0869 0 0
27.1831 0 0
27.1831 0 0
27.2793 0 0
27.2793 0 0
27.3755 0 0
27.3755 0 0
27.4717 0 0
27.4717 0 0
27.5679 0 0
27.5679 0 0
27.6641 0 0
27.6641 0 0
27.7603 0 0
27.7603 0 0
27.8564 0 0
27.8564 0 0
27.9526 0 0
27.9526 0 0
28.0488 0 0
28.0488 0 0
28.145 0 0
28.145 0 0
28.2412 0 0
28.2412 0 0
28.3374 0 0
28.3374 0 0
28.4336 0 0
28.4336 0 0
28.5298 0 0
28.5298 0 0
28.626 0 0
28.626 0 0
28.7222 0 0
28.7222 0 0
28.8184 0 0
28.8184 0 0
28.9146 0 0
28.9146 0 0
29.0107 0 0
29.0107 0 0
29.1069 0 0
29.1069 0 0
29.2031 0 0
29.2031 0 0
29.2993 0 0
29.2993 0 0
29.3955 0 0
29.3955 0 0
29.4917 0 0
29.4917 0 0
29.5879 0 0
29.5879 0 0
29.6841 0 0
29.6841 0 0
29.7803 0 0
29.7803 0 0
29.8765 0 0
29.8765 0 0
29.9727 0 0
29.9727 0 0
30.0688 0 0
30.0688 0 0
30.165 0 0
30.165 0 0
30.2612 0 0
30.2612 0 0
30.3574 0 0
30.3574 0 0
30.4536 0 0
30.4536 0 0
30.5498 0 0
30.5498 0 0
30.646 0 0
30.646 0 0
30.7422 0 0
30.7422 0 0
30.8384 0 0
30.8384 0 0
30.9346 0 0
30.9346 0 0
31.0308 0 0
31.0308 0 0
31.127 0 0
31.127 0 0
31.2231 0 0
31.2231 0 0
31.3193 0 0
31.3193 0 0
31.4155 0 0
31.4155 0 0
31.5117 0 0
31.5117 0 0
31.6079 0 0
31.6079 0 0
31.7041 0 0
31.7041 0 0
31.8003 0 0
31.8003 0 0
31.8965 0 0
31.8965 0 0
31.9927 0 0
31.9927 0 0
32.0889 0 0
32.0889 0 0
32.1851 0 0
32.1851 0 0
32.2812 0 0
32.2812 0 0
32.3774 0 0
32.3774 0 0
32.4736 0 0
32.4736 0 0
32.5698 0 0
32.5698 0 0
32.666 0 0
32.666 0 0
32.7622 0 0
32.7622 0 0
32.8584 0 0
32.8584 0 0
32.9546 0 0
32.9546 0 0
33.0508 0 0
33.0508 0 0
33.147 0 0
33.147 0 0
33.2432 0 0
33.2432 0 0
33.3394 0 0
33.3394 0 0
33.4355 0 0
33.4355 0 0
33.5317 0 0
33.5317 0 0
33.6279 0 0
33.6279 0 0
33.7241 0 0
33.7241 0 0
33.8203 0 0
33.8203 0 0
33.9165 0 0
33.9165 0 0
34.0127 0 0
34.0127 0 0
34.1089 0 0
34.1089 0 0
34.2051 0 0
34.2051 0 0
34.3013 0 0
34.3013 0 0
34.3975 0 0
34.3975 0 0
34.4937 0 0
34.4937 0 0
34.5898 0 0
34.5898 0 0
34.686 0 0
34.686 0 0
34.7822 0 0
34.7822 0 0
34.8784 0 0
34.8784 0 0
34.9746 0 0
34.9746 0 0
35.0708 0 0
35.0708 0 0
35.167 0 0
35.167 0 0
35.2632 0 0
35.2632 0 0
35.3594 0 0
35.3594 0 0
35.4556 0 0
35.4556 0 0
35.5518 0 0
35.5518 0 0
35.6479 0 0
35.6479 0 0
35.7441 0 0
35.7441 0 0
35.8403 0 0
35.8403 0 0
35.9365 0 0
35.9365 0 0
36.0327 0 0
36.0327 0 0
36.1289 0 0
36.1289 0 0
36.2251 0 0
36.2251 0 0
36.3213 0 0
36.3213 0 0
36.4175 0 0
36.4175 0 0
36.5137 0 0
36.5137 0 0
36.6099 0 0
36.6099 0 0
36.7061 0 0
36.7061 0 0
36.8022 0 0
36.8022 0 0
36.8984 0 0
36.8984 0 0
36.9946 0 0
36.9946 0 0
37.0908 0 0
37.0908 0 0
37.187 0 0
37.187 0 0
37.2832 0 0
37.2832 0 0
37.3794 0 0
37.3794 0 0
37.4756 0 0
37.4756 0 0
37.5718 0 0
37.5718 0 0
37.668 0 0
37.668 0 0
37.7642 0 0
37.7642 0 0
37.8604 0 0
37.8604 0 0
37.9565 0 0
37.9565 0 0
38.0527 0 0
38.0527 0 0
38.1489 0 0
38.1489 0 0
38.2451 0 0
38.2451 0 0
38.3413 0 0
38.3413 0 0
38.4375 0 0
38.4375 0 0
38.5337 0 0
38.5337 0 0
38.6299 0 0
38.6299 0 0
38.7261 0 0
38.7261 0 0
38.8223 0 0
38.8223 0 0
38.9185 0 0
38.9185 0 0
39.0146 0 0
39.0146 0 0
39.1108 0 0
39.1108 0 0
39.207 0 0
39.207 0 0
39.3032 0 0
39.3032 0 0
39.3994 0 0
39.3994 0 0
39.4956 0 0
39.4956 0 0
39.5918 0 0
39.5918 0 0
39.688 0 0
39.688 0 0
39.7842 0 0
39.7842 0 0
39.8804 0 0
39.8804 0 0
39.9766 0 0
39.9766 0 0
40.0728 0 0
40.0728 0 0
40.1689 0 0
40.1689 0 0
40.2651 0 0
40.2651 0 0
40.3613 0 0
40.3613 0 0
40.4575 0 0
40.4575 0 0
40.5537 0 0
40.5537 0 0
40.6499 0 0
40.6499 0 0
40.7461 0 0
40.7461 0 0
40.8423 0 0
40.8423 0 0
40.9385 0 0
40.9385 0 0
41.0347 0 0
41.0347 0 0
41.1309 0 0
41.1309 0 0
41.2271 0 0
41.2271 0 0
[...]
POINT_DATA 2048
SCALARS solution_0 double 1
LOOKUP_TABLE default
-1.77441e+12 -1.74323e+12 -1.74323e+12 -1.71702e+12 -1.71702e+12 -1.695e+12 -1.695e+12 -1.6765e+12 -1.6765e+12 -1.66096e+12 -1.66096e+12 -1.64791e+12 -1.64791e+12 -1.63698e+12 -1.63698e+12 -1.62781e+12 -1.62781e+12 -1.62014e+12 -1.62014e+12 -1.61372e+12 -1.61372e+12 -1.60835e+12 -1.60835e+12 -1.60387e+12 -1.60387e+12 -1.60012e+12 -1.60012e+12 -1.59698e+12 -1.59698e+12 -1.59434e+12 -1.59434e+12 -1.59211e+12 -1.59211e+12 -1.59021e+12 -1.59021e+12 -1.58856e+12 -1.58856e+12 -1.58711e+12 -1.58711e+12 -1.58581e+12 -1.58581e+12 -1.58461e+12 -1.58461e+12 -1.58347e+12 -1.58347e+12 -1.58236e+12 -1.58236e+12 -1.58124e+12 -1.58124e+12 -1.5801e+12 -1.5801e+12 -1.57892e+12 -1.57892e+12 -1.57766e+12 -1.57766e+12 -1.57632e+12 -1.57632e+12 -1.57488e+12 -1.57488e+12 -1.57333e+12 -1.57333e+12 -1.57166e+12 -1.57166e+12 -1.56986e+12 -1.56986e+12 -1.56793e+12 -1.56793e+12 -1.56585e+12 -1.56585e+12 -1.56362e+12 -1.56362e+12 -1.56124e+12 -1.56124e+12 -1.55871e+12 -1.55871e+12 -1.55601e+12 -1.55601e+12 -1.55316e+12 -1.55316e+12 -1.55015e+12 -1.55015e+12 -1.54698e+12 -1.54698e+12 -1.54364e+12 -1.54364e+12 -1.54014e+12 -1.54014e+12 -1.53649e+12 -1.53649e+12 -1.53267e+12 -1.53267e+12 -1.52869e+12 -1.52869e+12 -1.52456e+12 -1.52456e+12 -1.52027e+12 -1.52027e+12 -1.51583e+12 -1.51583e+12 -1.51124e+12 -1.51124e+12 -1.5065e+12 -1.5065e+12 -1.50161e+12 -1.50161e+12 -1.49657e+12 -1.49657e+12 -1.49139e+12 -1.49139e+12 -1.48608e+12 -1.48608e+12 -1.48063e+12 -1.48063e+12 -1.47504e+12 -1.47504e+12 -1.46932e+12 -1.46932e+12 -1.46348e+12 -1.46348e+12 -1.45751e+12 -1.45751e+12 -1.45141e+12 -1.45141e+12 -1.4452e+12 -1.4452e+12 -1.43887e+12 -1.43887e+12 -1.43243e+12 -1.43243e+12 -1.42588e+12 -1.42588e+12 -1.41922e+12 -1.41922e+12 -1.41245e+12 -1.41245e+12 -1.40558e+12 -1.40558e+12 -1.39862e+12 -1.39862e+12 -1.39156e+12 -1.39156e+12 -1.3844e+12 -1.3844e+12 -1.37716e+12 -1.37716e+12 -1.36982e+12 -1.36982e+12 -1.36241e+12 -1.36241e+12 -1.35491e+12 -1.35491e+12 -1.34733e+12 -1.34733e+12 -1.33968e+12 -1.33968e+12 -1.33195e+12 -1.33195e+12 -1.32416e+12 -1.32416e+12 -1.31629e+12 -1.31629e+12 -1.30836e+12 -1.30836e+12 -1.30037e+12 -1.30037e+12 -1.29231e+12 -1.29231e+12 -1.2842e+12 -1.2842e+12 -1.27604e+12 -1.27604e+12 -1.26781e+12 -1.26781e+12 -1.25954e+12 -1.25954e+12 -1.25122e+12 -1.25122e+12 -1.24286e+12 -1.24286e+12 -1.23445e+12 -1.23445e+12 -1.226e+12 -1.226e+12 -1.21751e+12 -1.21751e+12 -1.20898e+12 -1.20898e+12 -1.20042e+12 -1.20042e+12 -1.19183e+12 -1.19183e+12 -1.1832e+12 -1.1832e+12 -1.17455e+12 -1.17455e+12 -1.16587e+12 -1.16587e+12 -1.15716e+12 -1.15716e+12 -1.14843e+12 -1.14843e+12 -1.13969e+12 -1.13969e+12 -1.13092e+12 -1.13092e+12 -1.12213e+12 -1.12213e+12 -1.11333e+12 -1.11333e+12 -1.10451e+12 -1.10451e+12 -1.09569e+12 -1.09569e+12 -1.08685e+12 -1.08685e+12 -1.078e+12 -1.078e+12 -1.06915e+12 -1.06915e+12 -1.06029e+12 -1.06029e+12 -1.05142e+12 -1.05142e+12 -1.04256e+12 -1.04256e+12 -1.03369e+12 -1.03369e+12 -1.02482e+12 -1.02482e+12 -1.01596e+12 -1.01596e+12 -1.00709e+12 -1.00709e+12 -9.98235e+11 -9.98235e+11 -9.89383e+11 -9.89383e+11 -9.80538e+11 -9.80538e+11 -9.71701e+11 -9.71701e+11 -9.62875e+11 -9.62875e+11 -9.54058e+11 -9.54058e+11 -9.45254e+11 -9.45254e+11 -9.36464e+11 -9.36464e+11 -9.27687e+11 -9.27687e+11 -9.18927e+11 -9.18927e+11 -9.10182e+11 -9.10182e+11 -9.01455e+11 -9.01455e+11 -8.92747e+11 -8.92747e+11 -8.84059e+11 -8.84059e+11 -8.75391e+11 -8.75391e+11 -8.66745e+11 -8.66745e+11 -8.58122e+11 -8.58122e+11 -8.49521e+11 -8.49521e+11 -8.40946e+11 -8.40946e+11 -8.32395e+11 -8.32395e+11 -8.2387e+11 -8.2387e+11 -8.15373e+11 -8.15373e+11 -8.06903e+11 -8.06903e+11 -7.98461e+11 -7.98461e+11 -7.90049e+11 -7.90049e+11 -7.81667e+11 -7.81667e+11 -7.73315e+11 -7.73315e+11 -7.64995e+11 -7.64995e+11 -7.56707e+11 -7.56707e+11 -7.48452e+11 -7.48452e+11 -7.4023e+11 -7.4023e+11 -7.32042e+11 -7.32042e+11 -7.23889e+11 -7.23889e+11 -7.1577e+11 -7.1577e+11 -7.07688e+11 -7.07688e+11 -6.99642e+11 -6.99642e+11 -6.91632e+11 -6.91632e+11 -6.83661e+11 -6.83661e+11 -6.75726e+11 -6.75726e+11 -6.67831e+11 -6.67831e+11 -6.59974e+11 -6.59974e+11 -6.52156e+11 -6.52156e+11 -6.44378e+11 -6.44378e+11 -6.3664e+11 -6.3664e+11 -6.28943e+11 -6.28943e+11 -6.21287e+11 -6.21287e+11 -6.13672e+11 -6.13672e+11 -6.06098e+11 -6.06098e+11 -5.98567e+11 -5.98567e+11 -5.91078e+11 -5.91078e+11 -5.83631e+11 -5.83631e+11 -5.76228e+11 -5.76228e+11 -5.68868e+11 -5.68868e+11 -5.61551e+11 -5.61551e+11 -5.54278e+11 -5.54278e+11 -5.4705e+11 -5.4705e+11 -5.39865e+11 -5.39865e+11 -5.32726e+11 -5.32726e+11 -5.25631e+11 -5.25631e+11 -5.1858e+11 -5.1858e+11 -5.11576e+11 -5.11576e+11 -5.04616e+11 -5.04616e+11 -4.97702e+11 -4.97702e+11 -4.90834e+11 -4.90834e+11 -4.84011e+11 -4.84011e+11 -4.77235e+11 -4.77235e+11 -4.70505e+11 -4.70505e+11 -4.63821e+11 -4.63821e+11 -4.57183e+11 -4.57183e+11 -4.50592e+11 -4.50592e+11 -4.44048e+11 -4.44048e+11 -4.3755e+11 -4.3755e+11 -4.31099e+11 -4.31099e+11 -4.24695e+11 -4.24695e+11 -4.18338e+11 -4.18338e+11 -4.12028e+11 -4.12028e+11 -4.05764e+11 -4.05764e+11 -3.99548e+11 -3.99548e+11 -3.93379e+11 -3.93379e+11 -3.87257e+11 -3.87257e+11 -3.81182e+11 -3.81182e+11 -3.75154e+11 -3.75154e+11 -3.69173e+11 -3.69173e+11 -3.63239e+11 -3.63239e+11 -3.57352e+11 -3.57352e+11 -3.51513e+11 -3.51513e+11 -3.4572e+11 -3.4572e+11 -3.39974e+11 -3.39974e+11 -3.34276e+11 -3.34276e+11 -3.28624e+11 -3.28624e+11 -3.23019e+11 -3.23019e+11 -3.17461e+11 -3.17461e+11 -3.11949e+11 -3.11949e+11 -3.06485e+11 -3.06485e+11 -3.01066e+11 -3.01066e+11 -2.95695e+11 -2.95695e+11 -2.90369e+11 -2.90369e+11 -2.8509e+11 -2.8509e+11 -2.79857e+11 -2.79857e+11 -2.74671e+11 -2.74671e+11 -2.6953e+11 -2.6953e+11 -2.64435e+11 -2.64435e+11 -2.59386e+11 -2.59386e+11 -2.54382e+11 -2.54382e+11 -2.49424e+11 -2.49424e+11 -2.44512e+11 -2.44512e+11 -2.39644e+11 -2.39644e+11 -2.34822e+11 -2.34822e+11 -2.30045e+11 -2.30045e+11 -2.25312e+11 -2.25312e+11 -2.20624e+11 -2.20624e+11 -2.15981e+11 -2.15981e+11 -2.11382e+11 -2.11382e+11 -2.06827e+11 -2.06827e+11 -2.02316e+11 -2.02316e+11 -1.9785e+11 -1.9785e+11 -1.93426e+11 -1.93426e+11 -1.89046e+11 -1.89046e+11 -1.8471e+11 -1.8471e+11 -1.80417e+11 -1.80417e+11 -1.76166e+11 -1.76166e+11 -1.71959e+11 -1.71959e+11 -1.67794e+11 -1.67794e+11 -1.63671e+11 -1.63671e+11 -1.59591e+11 -1.59591e+11 -1.55552e+11 -1.55552e+11 -1.51556e+11 -1.51556e+11 -1.47601e+11 -1.47601e+11 -1.43687e+11 -1.43687e+11 -1.39815e+11 -1.39815e+11 -1.35983e+11 -1.35983e+11 -1.32193e+11 -1.32193e+11 -1.28443e+11 -1.28443e+11 -1.24733e+11 -1.24733e+11 -1.21063e+11 -1.21063e+11 -1.17434e+11 -1.17434e+11 -1.13844e+11 -1.13844e+11 -1.10293e+11 -1.10293e+11 -1.06782e+11 -1.06782e+11 -1.0331e+11 -1.0331e+11 -9.98762e+10 -9.98762e+10 -9.64814e+10 -9.64814e+10 -9.31249e+10 -9.31249e+10 -8.98065e+10 -8.98065e+10 -8.65261e+10 -8.65261e+10 -8.32833e+10 -8.32833e+10 -8.00779e+10 -8.00779e+10 -7.69098e+10 -7.69098e+10 -7.37786e+10 -7.37786e+10 -7.06841e+10 -7.06841e+10 -6.76262e+10 -6.76262e+10 -6.46045e+10 -6.46045e+10 -6.16188e+10 -6.16188e+10 -5.8669e+10 -5.8669e+10 -5.57546e+10 -5.57546e+10 -5.28756e+10 -5.28756e+10 -5.00317e+10 -5.00317e+10 -4.72226e+10 -4.72226e+10 -4.44481e+10 -4.44481e+10 -4.1708e+10 -4.1708e+10 -3.90019e+10 -3.90019e+10 -3.63298e+10 -3.63298e+10 -3.36913e+10 -3.36913e+10 -3.10861e+10 -3.10861e+10 -2.85142e+10 -2.85142e+10 -2.59751e+10 -2.59751e+10 -2.34687e+10 -2.34687e+10 -2.09947e+10 -2.09947e+10 -1.85529e+10 -1.85529e+10 -1.6143e+10 -1.6143e+10 -1.37649e+10 -1.37649e+10 -1.14182e+10 -1.14182e+10 -9.10267e+09 -9.10267e+09 -6.81815e+09 -6.81815e+09 -4.56436e+09 -4.56436e+09 -2.34107e+09 -2.34107e+09 -1.4802e+08 -1.4802e+08 2.01502e+09 2.01502e+09 4.14829e+09 4.14829e+09 6.25203e+09 6.25203e+09 8.32648e+09 8.32648e+09 1.03719e+10 1.03719e+10 1.23885e+10 1.23885e+10 1.43765e+10 1.43765e+10 1.63362e+10 1.63362e+10 1.82678e+10 1.82678e+10 2.01715e+10 2.01715e+10 2.20476e+10 2.20476e+10 2.38963e+10 2.38963e+10 2.57179e+10 2.57179e+10 2.75126e+10 2.75126e+10 2.92805e+10 2.92805e+10 3.1022e+10 3.1022e+10 3.27373e+10 3.27373e+10 3.44267e+10 3.44267e+10 3.60902e+10 3.60902e+10 3.77283e+10 3.77283e+10 3.9341e+10 3.9341e+10 4.09287e+10 4.09287e+10 4.24916e+10 4.24916e+10 4.40298e+10 4.40298e+10 4.55437e+10 4.55437e+10 4.70334e+10 4.70334e+10 4.84992e+10 4.84992e+10 4.99413e+10 4.99413e+10 5.13599e+10 5.13599e+10 5.27552e+10 5.27552e+10 5.41275e+10 5.41275e+10 5.5477e+10 5.5477e+10 5.68039e+10 5.68039e+10 5.81084e+10 5.81084e+10 5.93907e+10 5.93907e+10 6.06511e+10 6.06511e+10 6.18898e+10 6.18898e+10 6.3107e+10 6.3107e+10 6.43028e+10 6.43028e+10 6.54776e+10 6.54776e+10 6.66315e+10 6.66315e+10 6.77647e+10 6.77647e+10 6.88775e+10 6.88775e+10 6.997e+10 6.997e+10 7.10425e+10 7.10425e+10 7.20951e+10 7.20951e+10 7.31282e+10 7.31282e+10 7.41418e+10 7.41418e+10 7.51361e+10 7.51361e+10 7.61115e+10 7.61115e+10 7.7068e+10 7.7068e+10 7.8006e+10 7.8006e+10 7.89255e+10 7.89255e+10 7.98267e+10 7.98267e+10 8.071e+10 8.071e+10 8.15754e+10 8.15754e+10 8.24232e+10 8.24232e+10 8.32536e+10 8.32536e+10 8.40666e+10 8.40666e+10 8.48627e+10 8.48627e+10 8.56418e+10 8.56418e+10 8.64043e+10 8.64043e+10 8.71503e+10 8.71503e+10 8.78799e+10 8.78799e+10 8.85935e+10 8.85935e+10 8.92911e+10 8.92911e+10 8.99729e+10 8.99729e+10 9.06391e+10 9.06391e+10 9.129e+10 9.129e+10 9.19256e+10 9.19256e+10 9.25462e+10 9.25462e+10 9.31519e+10 9.31519e+10 9.37429e+10 9.37429e+10 9.43194e+10 9.43194e+10 9.48816e+10 9.48816e+10 9.54295e+10 9.54295e+10 9.59635e+10 9.59635e+10 9.64836e+10 9.64836e+10 9.69901e+10 9.69901e+10 9.7483e+10 9.7483e+10 9.79627e+10 9.79627e+10 9.84291e+10 9.84291e+10 9.88825e+10 9.88825e+10 9.93231e+10 9.93231e+10 9.9751e+10 9.9751e+10 1.00166e+11 1.00166e+11 1.00569e+11 1.00569e+11 1.0096e+11 1.0096e+11 1.01339e+11 1.01339e+11 1.01706e+11 1.01706e+11 1.02061e+11 1.02061e+11 1.02404e+11 1.02404e+11 1.02736e+11 1.02736e+11 1.03057e+11 1.03057e+11 1.03366e+11 1.03366e+11 1.03665e+11 1.03665e+11 1.03953e+11 1.03953e+11 1.0423e+11 1.0423e+11 1.04496e+11 1.04496e+11 1.04752e+11 1.04752e+11 1.04998e+11 1.04998e+11 1.05233e+11 1.05233e+11 1.05459e+11 1.05459e+11 1.05675e+11 1.05675e+11 1.05881e+11 1.05881e+11 1.06077e+11 1.06077e+11 1.06264e+11 1.06264e+11 1.06441e+11 1.06441e+11 1.0661e+11 1.0661e+11 1.06769e+11 1.06769e+11 1.06919e+11 1.06919e+11 1.07061e+11 1.07061e+11 1.07194e+11 1.07194e+11 1.07318e+11 1.07318e+11 1.07434e+11 1.07434e+11 1.07541e+11 1.07541e+11 1.07641e+11 1.07641e+11 1.07732e+11 1.07732e+11 1.07815e+11 1.07815e+11 1.07891e+11 1.07891e+11 1.07959e+11 1.07959e+11 1.08019e+11 1.08019e+11 1.08072e+11 1.08072e+11 1.08117e+11 1.08117e+11 1.08156e+11 1.08156e+11 1.08187e+11 1.08187e+11 1.08211e+11 1.08211e+11 1.08228e+11 1.08228e+11 1.08238e+11 1.08238e+11 1.08242e+11 1.08242e+11 1.08239e+11 1.08239e+11 1.08229e+11 1.08229e+11 1.08214e+11 1.08214e+11 1.08192e+11 1.08192e+11 1.08163e+11 1.08163e+11 1.08129e+11 1.08129e+11 1.08089e+11 1.08089e+11 1.08043e+11 1.08043e+11 1.07991e+11 1.07991e+11 1.07934e+11 1.07934e+11 1.07871e+11 1.07871e+11 1.07802e+11 1.07802e+11 1.07728e+11 1.07728e+11 1.07649e+11 1.07649e+11 1.07565e+11 1.07565e+11 1.07475e+11 1.07475e+11 1.07381e+11 1.07381e+11 1.07282e+11 1.07282e+11 1.07178e+11 1.07178e+11 1.07069e+11 1.07069e+11 1.06955e+11 1.06955e+11 1.06837e+11 1.06837e+11 1.06715e+11 1.06715e+11 1.06588e+11 1.06588e+11 1.06457e+11 1.06457e+11 1.06321e+11 1.06321e+11 1.06182e+11 1.06182e+11 1.06038e+11 1.06038e+11 1.0589e+11 1.0589e+11 1.05739e+11 1.05739e+11 1.05584e+11 1.05584e+11 1.05425e+11 1.05425e+11 1.05262e+11 1.05262e+11 1.05096e+11 1.05096e+11 1.04926e+11 1.04926e+11 1.04753e+11 1.04753e+11 1.04576e+11 1.04576e+11 1.04397e+11 1.04397e+11 1.04214e+11 1.04214e+11 1.04027e+11 1.04027e+11 1.03838e+11 1.03838e+11 1.03646e+11 1.03646e+11 1.03451e+11 1.03451e+11 1.03253e+11 1.03253e+11 1.03052e+11 1.03052e+11 1.02848e+11 1.02848e+11 1.02642e+11 1.02642e+11 1.02433e+11 1.02433e+11 1.02222e+11 1.02222e+11 1.02008e+11 1.02008e+11 1.01792e+11 1.01792e+11 1.01573e+11 1.01573e+11 1.01352e+11 1.01352e+11 1.01129e+11 1.01129e+11 1.00904e+11 1.00904e+11 1.00677e+11 1.00677e+11 1.00447e+11 1.00447e+11 1.00216e+11 1.00216e+11 9.99825e+10 9.99825e+10 9.97473e+10 9.97473e+10 9.95102e+10 9.95102e+10 9.92714e+10 9.92714e+10 9.90308e+10 9.90308e+10 9.87886e+10 9.87886e+10 9.85447e+10 9.85447e+10 9.82994e+10 9.82994e+10 9.80525e+10 9.80525e+10 9.78041e+10 9.78041e+10 9.75544e+10 9.75544e+10 9.73032e+10 9.73032e+10 9.70508e+10 9.70508e+10 9.67971e+10 9.67971e+10 9.65423e+10 9.65423e+10 9.62862e+10 9.62862e+10 9.6029e+10 9.6029e+10 9.57708e+10 9.57708e+10 9.55115e+10 9.55115e+10 9.52512e+10 9.52512e+10 9.499e+10 9.499e+10 9.47279e+10 9.47279e+10 9.4465e+10 9.4465e+10 9.42012e+10 9.42012e+10 9.39366e+10 9.39366e+10 9.36714e+10 9.36714e+10 9.34054e+10 9.34054e+10 9.31388e+10 9.31388e+10 9.28716e+10 9.28716e+10 9.26038e+10 9.26038e+10 9.23355e+10 9.23355e+10 9.20667e+10 9.20667e+10 9.17974e+10 9.17974e+10 9.15278e+10 9.15278e+10 9.12577e+10 9.12577e+10 9.09873e+10 9.09873e+10 9.07165e+10 9.07165e+10 9.04455e+10 9.04455e+10 9.01743e+10 9.01743e+10 8.99028e+10 8.99028e+10 8.96312e+10 8.96312e+10 8.93594e+10 8.93594e+10 8.90875e+10 8.90875e+10 8.88156e+10 8.88156e+10 8.85435e+10 8.85435e+10 8.82715e+10 8.82715e+10 8.79995e+10 8.79995e+10 8.77275e+10 8.77275e+10 8.74556e+10 8.74556e+10 8.71838e+10 8.71838e+10 8.69121e+10 8.69121e+10 8.66406e+10 8.66406e+10 8.63693e+10 8.63693e+10 8.60982e+10 8.60982e+10 8.58273e+10 8.58273e+10 8.55567e+10 8.55567e+10 8.52864e+10 8.52864e+10 8.50165e+10 8.50165e+10 8.47468e+10 8.47468e+10 8.44776e+10 8.44776e+10 8.42087e+10 8.42087e+10 8.39403e+10 8.39403e+10 8.36723e+10 8.36723e+10 8.34048e+10 8.34048e+10 8.31377e+10 8.31377e+10 8.28712e+10 8.28712e+10 8.26052e+10 8.26052e+10 8.23398e+10 8.23398e+10 8.2075e+10 8.2075e+10 8.18108e+10 8.18108e+10 8.15471e+10 8.15471e+10 8.12842e+10 8.12842e+10 8.10219e+10 8.10219e+10 8.07603e+10 8.07603e+10 8.04994e+10 8.04994e+10 8.02392e+10 8.02392e+10 7.99798e+10 7.99798e+10 7.97211e+10 7.97211e+10 7.94632e+10 7.94632e+10 7.92061e+10 7.92061e+10 7.89498e+10 7.89498e+10 7.86944e+10 7.86944e+10 7.84398e+10 7.84398e+10 7.81861e+10 7.81861e+10 7.79333e+10 7.79333e+10 7.76813e+10 7.76813e+10 7.74303e+10 7.74303e+10 7.71803e+10 7.71803e+10 7.69312e+10 7.69312e+10 7.6683e+10 7.6683e+10 7.64358e+10 7.64358e+10 7.61897e+10 7.61897e+10 7.59445e+10 7.59445e+10 7.57004e+10 7.57004e+10 7.54573e+10 7.54573e+10 7.52152e+10 7.52152e+10 7.49742e+10 7.49742e+10 7.47344e+10 7.47344e+10 7.44955e+10 7.44955e+10 7.42579e+10 7.42579e+10 7.40213e+10 7.40213e+10 7.37858e+10 7.37858e+10 7.35515e+10 7.35515e+10 7.33184e+10 7.33184e+10 7.30864e+10 7.30864e+10 7.28556e+10 7.28556e+10 7.2626e+10 7.2626e+10 7.23976e+10 7.23976e+10 7.21704e+10 7.21704e+10 7.19444e+10 7.19444e+10 7.17197e+10 7.17197e+10 7.14962e+10 7.14962e+10 7.12739e+10 7.12739e+10 7.1053e+10 7.1053e+10 7.08333e+10 7.08333e+10 7.06148e+10 7.06148e+10 7.03977e+10 7.03977e+10 7.01819e+10 7.01819e+10 6.99674e+10 6.99674e+10 6.97542e+10 6.97542e+10 6.95423e+10 6.95423e+10 6.93317e+10 6.93317e+10 6.91225e+10 6.91225e+10 6.89147e+10 6.89147e+10 6.87082e+10 6.87082e+10 6.85031e+10 6.85031e+10 6.82994e+10 6.82994e+10 6.8097e+10 6.8097e+10 6.7896e+10 6.7896e+10 6.76964e+10 6.76964e+10 6.74983e+10 6.74983e+10 6.73015e+10 6.73015e+10 6.71062e+10 6.71062e+10 6.69123e+10 6.69123e+10 6.67198e+10 6.67198e+10 6.65287e+10 6.65287e+10 6.63391e+10 6.63391e+10 6.61509e+10 6.61509e+10 6.59642e+10 6.59642e+10 6.5779e+10 6.5779e+10 6.55952e+10 6.55952e+10 6.54128e+10 6.54128e+10 6.5232e+10 6.5232e+10 6.50526e+10 6.50526e+10 6.48747e+10 6.48747e+10 6.46983e+10 6.46983e+10 6.45234e+10 6.45234e+10 6.435e+10 6.435e+10 6.41781e+10 6.41781e+10 6.40077e+10 6.40077e+10 6.38389e+10 6.38389e+10 6.36715e+10 6.36715e+10 6.35056e+10 6.35056e+10 6.33413e+10 6.33413e+10 6.31785e+10 6.31785e+10 6.30173e+10 6.30173e+10 6.28575e+10 6.28575e+10 6.26993e+10 6.26993e+10 6.25427e+10 6.25427e+10 6.23875e+10 6.23875e+10 6.2234e+10 6.2234e+10 6.2082e+10 6.2082e+10 6.19315e+10 6.19315e+10 6.17826e+10 6.17826e+10 6.16352e+10 6.16352e+10 6.14894e+10 6.14894e+10 6.13452e+10 6.13452e+10 6.12025e+10 6.12025e+10 6.10614e+10 6.10614e+10 6.09219e+10 6.09219e+10 6.07839e+10 6.07839e+10 6.06475e+10 6.06475e+10 6.05127e+10 6.05127e+10 6.03795e+10 6.03795e+10 6.02478e+10 6.02478e+10 6.01177e+10 6.01177e+10 5.99892e+10 5.99892e+10 5.98623e+10 5.98623e+10 5.97369e+10 5.97369e+10 5.96132e+10 5.96132e+10 5.9491e+10 5.9491e+10 5.93704e+10 5.93704e+10 5.92514e+10 5.92514e+10 5.9134e+10 5.9134e+10 5.90182e+10 5.90182e+10 5.8904e+10 5.8904e+10 5.87913e+10 5.87913e+10 5.86803e+10 5.86803e+10 5.85708e+10 5.85708e+10 5.84629e+10 5.84629e+10 5.83566e+10 5.83566e+10 5.8252e+10 5.8252e+10 5.81489e+10 5.81489e+10 5.80473e+10 5.80473e+10 5.79474e+10 5.79474e+10 5.78491e+10 5.78491e+10 5.77524e+10 5.77524e+10 5.76572e+10 5.76572e+10 5.75636e+10 5.75636e+10 5.74717e+10 5.74717e+10 5.73813e+10 5.73813e+10 5.72925e+10 5.72925e+10 5.72053e+10 5.72053e+10 5.71196e+10 5.71196e+10 5.70356e+10 5.70356e+10 5.69531e+10 5.69531e+10 5.68723e+10 5.68723e+10 5.6793e+10 5.6793e+10 5.67152e+10 5.67152e+10 5.66391e+10 5.66391e+10 5.65645e+10 5.65645e+10 5.64915e+10 5.64915e+10 5.64201e+10 5.64201e+10 5.63503e+10 5.63503e+10 5.6282e+10 5.6282e+10 5.62153e+10 5.62153e+10 5.61502e+10 5.61502e+10 5.60866e+10 5.60866e+10 5.60246e+10 5.60246e+10 5.59641e+10 5.59641e+10 5.59052e+10 5.59052e+10 5.58478e+10 5.58478e+10 5.5792e+10 5.5792e+10 5.57378e+10 5.57378e+10 5.56851e+10 5.56851e+10 5.56339e+10 5.56339e+10 5.55843e+10 5.55843e+10 5.55362e+10 5.55362e+10 5.54896e+10 5.54896e+10 5.54446e+10 5.54446e+10 5.54011e+10 5.54011e+10 5.53592e+10 5.53592e+10 5.53187e+10 5.53187e+10 5.52798e+10 5.52798e+10 5.52424e+10 5.52424e+10 5.52064e+10 5.52064e+10 5.5172e+10 5.5172e+10 5.51391e+10 5.51391e+10 5.51077e+10 5.51077e+10 5.50778e+10 5.50778e+10 5.50494e+10 5.50494e+10 5.50224e+10 5.50224e+10 5.4997e+10 5.4997e+10 5.4973e+10 5.4973e+10 5.49505e+10 5.49505e+10 5.49294e+10 5.49294e+10 5.49098e+10 5.49098e+10 5.48917e+10 5.48917e+10 5.4875e+10 5.4875e+10 5.48598e+10 5.48598e+10 5.4846e+10 5.4846e+10 5.48337e+10 5.48337e+10 5.48227e+10 5.48227e+10 5.48132e+10 5.48132e+10 5.48051e+10 5.48051e+10 5.47985e+10 5.47985e+10 5.47932e+10 5.47932e+10 5.47893e+10 5.47893e+10 5.47868e+10 5.47868e+10 5.47857e+10 5.47857e+10 5.4786e+10 5.4786e+10 5.47877e+10 5.47877e+10 5.47907e+10 5.47907e+10 5.47951e+10 5.47951e+10 5.48008e+10 5.48008e+10 5.48079e+10 5.48079e+10 5.48164e+10 5.48164e+10 5.48261e+10 5.48261e+10 5.48372e+10 5.48372e+10 5.48496e+10 5.48496e+10 5.48633e+10 5.48633e+10 5.48783e+10 5.48783e+10 5.48946e+10 5.48946e+10 5.49122e+10 5.49122e+10 5.4931e+10 5.4931e+10 5.49511e+10 5.49511e+10 5.49725e+10 5.49725e+10 5.49951e+10 5.49951e+10 5.5019e+10 5.5019e+10 5.50441e+10 5.50441e+10 5.50704e+10 5.50704e+10 5.50979e+10 5.50979e+10 5.51266e+10 5.51266e+10 5.51565e+10 5.51565e+10 5.51876e+10 5.51876e+10 5.52199e+10 5.52199e+10 5.52533e+10 5.52533e+10 5.52879e+10 5.52879e+10 5.53236e+10 5.53236e+10 5.53605e+10 5.53605e+10 5.53985e+10 5.53985e+10 5.54375e+10 5.54375e+10 5.54777e+10 5.54777e+10 5.55189e+10 5.55189e+10 5.55613e+10 5.55613e+10 5.56046e+10 5.56046e+10 5.56491e+10 5.56491e+10 5.56945e+10 5.56945e+10 5.5741e+10 5.5741e+10 5.57885e+10 5.57885e+10 5.5837e+10 5.5837e+10 5.58865e+10 5.58865e+10 5.5937e+10 5.5937e+10 5.59884e+10 5.59884e+10 5.60407e+10 5.60407e+10 5.6094e+10 5.6094e+10 5.61482e+10 5.61482e+10 5.62033e+10 5.62033e+10 5.62593e+10 5.62593e+10 5.63161e+10 5.63161e+10 5.63738e+10 5.63738e+10 5.64324e+10 5.64324e+10 5.64918e+10 5.64918e+10 5.6552e+10 5.6552e+10 5.6613e+10 5.6613e+10 5.66747e+10 5.66747e+10 5.67372e+10 5.67372e+10 5.68005e+10 5.68005e+10 5.68645e+10 5.68645e+10 5.69292e+10 5.69292e+10 5.69946e+10 5.69946e+10 5.70607e+10 5.70607e+10 5.71274e+10 5.71274e+10 5.71948e+10 5.71948e+10 5.72628e+10 5.72628e+10 5.73314e+10 5.73314e+10 5.74006e+10 5.74006e+10 5.74704e+10 5.74704e+10 5.75407e+10 5.75407e+10 5.76115e+10 5.76115e+10 5.76828e+10 5.76828e+10 5.77547e+10 5.7754