# vtk DataFile Version 3.0
#This file was generated by the deal.II library on 2020/9/1 at 15:06:41
ASCII
DATASET UNSTRUCTURED_GRID

POINTS 2048 double
1.5 0 0
1.59619 0 0
1.59619 0 0
1.69238 0 0
1.69238 0 0
1.78857 0 0
1.78857 0 0
1.88477 0 0
1.88477 0 0
1.98096 0 0
1.98096 0 0
2.07715 0 0
2.07715 0 0
2.17334 0 0
2.17334 0 0
2.26953 0 0
2.26953 0 0
2.36572 0 0
2.36572 0 0
2.46191 0 0
2.46191 0 0
2.55811 0 0
2.55811 0 0
2.6543 0 0
2.6543 0 0
2.75049 0 0
2.75049 0 0
2.84668 0 0
2.84668 0 0
2.94287 0 0
2.94287 0 0
3.03906 0 0
3.03906 0 0
3.13525 0 0
3.13525 0 0
3.23145 0 0
3.23145 0 0
3.32764 0 0
3.32764 0 0
3.42383 0 0
3.42383 0 0
3.52002 0 0
3.52002 0 0
3.61621 0 0
3.61621 0 0
3.7124 0 0
3.7124 0 0
3.80859 0 0
3.80859 0 0
3.90479 0 0
3.90479 0 0
4.00098 0 0
4.00098 0 0
4.09717 0 0
4.09717 0 0
4.19336 0 0
4.19336 0 0
4.28955 0 0
4.28955 0 0
4.38574 0 0
4.38574 0 0
4.48193 0 0
4.48193 0 0
4.57812 0 0
4.57812 0 0
4.67432 0 0
4.67432 0 0
4.77051 0 0
4.77051 0 0
4.8667 0 0
4.8667 0 0
4.96289 0 0
4.96289 0 0
5.05908 0 0
5.05908 0 0
5.15527 0 0
5.15527 0 0
5.25146 0 0
5.25146 0 0
5.34766 0 0
5.34766 0 0
5.44385 0 0
5.44385 0 0
5.54004 0 0
5.54004 0 0
5.63623 0 0
5.63623 0 0
5.73242 0 0
5.73242 0 0
5.82861 0 0
5.82861 0 0
5.9248 0 0
5.9248 0 0
6.021 0 0
6.021 0 0
6.11719 0 0
6.11719 0 0
6.21338 0 0
6.21338 0 0
6.30957 0 0
6.30957 0 0
6.40576 0 0
6.40576 0 0
6.50195 0 0
6.50195 0 0
6.59814 0 0
6.59814 0 0
6.69434 0 0
6.69434 0 0
6.79053 0 0
6.79053 0 0
6.88672 0 0
6.88672 0 0
6.98291 0 0
6.98291 0 0
7.0791 0 0
7.0791 0 0
7.17529 0 0
7.17529 0 0
7.27148 0 0
7.27148 0 0
7.36768 0 0
7.36768 0 0
7.46387 0 0
7.46387 0 0
7.56006 0 0
7.56006 0 0
7.65625 0 0
7.65625 0 0
7.75244 0 0
7.75244 0 0
7.84863 0 0
7.84863 0 0
7.94482 0 0
7.94482 0 0
8.04102 0 0
8.04102 0 0
8.13721 0 0
8.13721 0 0
8.2334 0 0
8.2334 0 0
8.32959 0 0
8.32959 0 0
8.42578 0 0
8.42578 0 0
8.52197 0 0
8.52197 0 0
8.61816 0 0
8.61816 0 0
8.71436 0 0
8.71436 0 0
8.81055 0 0
8.81055 0 0
8.90674 0 0
8.90674 0 0
9.00293 0 0
9.00293 0 0
9.09912 0 0
9.09912 0 0
9.19531 0 0
9.19531 0 0
9.2915 0 0
9.2915 0 0
9.3877 0 0
9.3877 0 0
9.48389 0 0
9.48389 0 0
9.58008 0 0
9.58008 0 0
9.67627 0 0
9.67627 0 0
9.77246 0 0
9.77246 0 0
9.86865 0 0
9.86865 0 0
9.96484 0 0
9.96484 0 0
10.061 0 0
10.061 0 0
10.1572 0 0
10.1572 0 0
10.2534 0 0
10.2534 0 0
10.3496 0 0
10.3496 0 0
10.4458 0 0
10.4458 0 0
10.542 0 0
10.542 0 0
10.6382 0 0
10.6382 0 0
10.7344 0 0
10.7344 0 0
10.8306 0 0
10.8306 0 0
10.9268 0 0
10.9268 0 0
11.0229 0 0
11.0229 0 0
11.1191 0 0
11.1191 0 0
11.2153 0 0
11.2153 0 0
11.3115 0 0
11.3115 0 0
11.4077 0 0
11.4077 0 0
11.5039 0 0
11.5039 0 0
11.6001 0 0
11.6001 0 0
11.6963 0 0
11.6963 0 0
11.7925 0 0
11.7925 0 0
11.8887 0 0
11.8887 0 0
11.9849 0 0
11.9849 0 0
12.0811 0 0
12.0811 0 0
12.1772 0 0
12.1772 0 0
12.2734 0 0
12.2734 0 0
12.3696 0 0
12.3696 0 0
12.4658 0 0
12.4658 0 0
12.562 0 0
12.562 0 0
12.6582 0 0
12.6582 0 0
12.7544 0 0
12.7544 0 0
12.8506 0 0
12.8506 0 0
12.9468 0 0
12.9468 0 0
13.043 0 0
13.043 0 0
13.1392 0 0
13.1392 0 0
13.2354 0 0
13.2354 0 0
13.3315 0 0
13.3315 0 0
13.4277 0 0
13.4277 0 0
13.5239 0 0
13.5239 0 0
13.6201 0 0
13.6201 0 0
13.7163 0 0
13.7163 0 0
13.8125 0 0
13.8125 0 0
13.9087 0 0
13.9087 0 0
14.0049 0 0
14.0049 0 0
14.1011 0 0
14.1011 0 0
14.1973 0 0
14.1973 0 0
14.2935 0 0
14.2935 0 0
14.3896 0 0
14.3896 0 0
14.4858 0 0
14.4858 0 0
14.582 0 0
14.582 0 0
14.6782 0 0
14.6782 0 0
14.7744 0 0
14.7744 0 0
14.8706 0 0
14.8706 0 0
14.9668 0 0
14.9668 0 0
15.063 0 0
15.063 0 0
15.1592 0 0
15.1592 0 0
15.2554 0 0
15.2554 0 0
15.3516 0 0
15.3516 0 0
15.4478 0 0
15.4478 0 0
15.5439 0 0
15.5439 0 0
15.6401 0 0
15.6401 0 0
15.7363 0 0
15.7363 0 0
15.8325 0 0
15.8325 0 0
15.9287 0 0
15.9287 0 0
16.0249 0 0
16.0249 0 0
16.1211 0 0
16.1211 0 0
16.2173 0 0
16.2173 0 0
16.3135 0 0
16.3135 0 0
16.4097 0 0
16.4097 0 0
16.5059 0 0
16.5059 0 0
16.6021 0 0
16.6021 0 0
16.6982 0 0
16.6982 0 0
16.7944 0 0
16.7944 0 0
16.8906 0 0
16.8906 0 0
16.9868 0 0
16.9868 0 0
17.083 0 0
17.083 0 0
17.1792 0 0
17.1792 0 0
17.2754 0 0
17.2754 0 0
17.3716 0 0
17.3716 0 0
17.4678 0 0
17.4678 0 0
17.564 0 0
17.564 0 0
17.6602 0 0
17.6602 0 0
17.7563 0 0
17.7563 0 0
17.8525 0 0
17.8525 0 0
17.9487 0 0
17.9487 0 0
18.0449 0 0
18.0449 0 0
18.1411 0 0
18.1411 0 0
18.2373 0 0
18.2373 0 0
18.3335 0 0
18.3335 0 0
18.4297 0 0
18.4297 0 0
18.5259 0 0
18.5259 0 0
18.6221 0 0
18.6221 0 0
18.7183 0 0
18.7183 0 0
18.8145 0 0
18.8145 0 0
18.9106 0 0
18.9106 0 0
19.0068 0 0
19.0068 0 0
19.103 0 0
19.103 0 0
19.1992 0 0
19.1992 0 0
19.2954 0 0
19.2954 0 0
19.3916 0 0
19.3916 0 0
19.4878 0 0
19.4878 0 0
19.584 0 0
19.584 0 0
19.6802 0 0
19.6802 0 0
19.7764 0 0
19.7764 0 0
19.8726 0 0
19.8726 0 0
19.9688 0 0
19.9688 0 0
20.0649 0 0
20.0649 0 0
20.1611 0 0
20.1611 0 0
20.2573 0 0
20.2573 0 0
20.3535 0 0
20.3535 0 0
20.4497 0 0
20.4497 0 0
20.5459 0 0
20.5459 0 0
20.6421 0 0
20.6421 0 0
20.7383 0 0
20.7383 0 0
20.8345 0 0
20.8345 0 0
20.9307 0 0
20.9307 0 0
21.0269 0 0
21.0269 0 0
21.123 0 0
21.123 0 0
21.2192 0 0
21.2192 0 0
21.3154 0 0
21.3154 0 0
21.4116 0 0
21.4116 0 0
21.5078 0 0
21.5078 0 0
21.604 0 0
21.604 0 0
21.7002 0 0
21.7002 0 0
21.7964 0 0
21.7964 0 0
21.8926 0 0
21.8926 0 0
21.9888 0 0
21.9888 0 0
22.085 0 0
22.085 0 0
22.1812 0 0
22.1812 0 0
22.2773 0 0
22.2773 0 0
22.3735 0 0
22.3735 0 0
22.4697 0 0
22.4697 0 0
22.5659 0 0
22.5659 0 0
22.6621 0 0
22.6621 0 0
22.7583 0 0
22.7583 0 0
22.8545 0 0
22.8545 0 0
22.9507 0 0
22.9507 0 0
23.0469 0 0
23.0469 0 0
23.1431 0 0
23.1431 0 0
23.2393 0 0
23.2393 0 0
23.3354 0 0
23.3354 0 0
23.4316 0 0
23.4316 0 0
23.5278 0 0
23.5278 0 0
23.624 0 0
23.624 0 0
23.7202 0 0
23.7202 0 0
23.8164 0 0
23.8164 0 0
23.9126 0 0
23.9126 0 0
24.0088 0 0
24.0088 0 0
24.105 0 0
24.105 0 0
24.2012 0 0
24.2012 0 0
24.2974 0 0
24.2974 0 0
24.3936 0 0
24.3936 0 0
24.4897 0 0
24.4897 0 0
24.5859 0 0
24.5859 0 0
24.6821 0 0
24.6821 0 0
24.7783 0 0
24.7783 0 0
24.8745 0 0
24.8745 0 0
24.9707 0 0
24.9707 0 0
25.0669 0 0
25.0669 0 0
25.1631 0 0
25.1631 0 0
25.2593 0 0
25.2593 0 0
25.3555 0 0
25.3555 0 0
25.4517 0 0
25.4517 0 0
25.5479 0 0
25.5479 0 0
25.644 0 0
25.644 0 0
25.7402 0 0
25.7402 0 0
25.8364 0 0
25.8364 0 0
25.9326 0 0
25.9326 0 0
26.0288 0 0
26.0288 0 0
26.125 0 0
26.125 0 0
26.2212 0 0
26.2212 0 0
26.3174 0 0
26.3174 0 0
26.4136 0 0
26.4136 0 0
26.5098 0 0
26.5098 0 0
26.606 0 0
26.606 0 0
26.7021 0 0
26.7021 0 0
26.7983 0 0
26.7983 0 0
26.8945 0 0
26.8945 0 0
26.9907 0 0
26.9907 0 0
27.0869 0 0
27.0869 0 0
27.1831 0 0
27.1831 0 0
27.2793 0 0
27.2793 0 0
27.3755 0 0
27.3755 0 0
27.4717 0 0
27.4717 0 0
27.5679 0 0
27.5679 0 0
27.6641 0 0
27.6641 0 0
27.7603 0 0
27.7603 0 0
27.8564 0 0
27.8564 0 0
27.9526 0 0
27.9526 0 0
28.0488 0 0
28.0488 0 0
28.145 0 0
28.145 0 0
28.2412 0 0
28.2412 0 0
28.3374 0 0
28.3374 0 0
28.4336 0 0
28.4336 0 0
28.5298 0 0
28.5298 0 0
28.626 0 0
28.626 0 0
28.7222 0 0
28.7222 0 0
28.8184 0 0
28.8184 0 0
28.9146 0 0
28.9146 0 0
29.0107 0 0
29.0107 0 0
29.1069 0 0
29.1069 0 0
29.2031 0 0
29.2031 0 0
29.2993 0 0
29.2993 0 0
29.3955 0 0
29.3955 0 0
29.4917 0 0
29.4917 0 0
29.5879 0 0
29.5879 0 0
29.6841 0 0
29.6841 0 0
29.7803 0 0
29.7803 0 0
29.8765 0 0
29.8765 0 0
29.9727 0 0
29.9727 0 0
30.0688 0 0
30.0688 0 0
30.165 0 0
30.165 0 0
30.2612 0 0
30.2612 0 0
30.3574 0 0
30.3574 0 0
30.4536 0 0
30.4536 0 0
30.5498 0 0
30.5498 0 0
30.646 0 0
30.646 0 0
30.7422 0 0
30.7422 0 0
30.8384 0 0
30.8384 0 0
30.9346 0 0
30.9346 0 0
31.0308 0 0
31.0308 0 0
31.127 0 0
31.127 0 0
31.2231 0 0
31.2231 0 0
31.3193 0 0
31.3193 0 0
31.4155 0 0
31.4155 0 0
31.5117 0 0
31.5117 0 0
31.6079 0 0
31.6079 0 0
31.7041 0 0
31.7041 0 0
31.8003 0 0
31.8003 0 0
31.8965 0 0
31.8965 0 0
31.9927 0 0
31.9927 0 0
32.0889 0 0
32.0889 0 0
32.1851 0 0
32.1851 0 0
32.2812 0 0
32.2812 0 0
32.3774 0 0
32.3774 0 0
32.4736 0 0
32.4736 0 0
32.5698 0 0
32.5698 0 0
32.666 0 0
32.666 0 0
32.7622 0 0
32.7622 0 0
32.8584 0 0
32.8584 0 0
32.9546 0 0
32.9546 0 0
33.0508 0 0
33.0508 0 0
33.147 0 0
33.147 0 0
33.2432 0 0
33.2432 0 0
33.3394 0 0
33.3394 0 0
33.4355 0 0
33.4355 0 0
33.5317 0 0
33.5317 0 0
33.6279 0 0
33.6279 0 0
33.7241 0 0
33.7241 0 0
33.8203 0 0
33.8203 0 0
33.9165 0 0
33.9165 0 0
34.0127 0 0
34.0127 0 0
34.1089 0 0
34.1089 0 0
34.2051 0 0
34.2051 0 0
34.3013 0 0
34.3013 0 0
34.3975 0 0
34.3975 0 0
34.4937 0 0
34.4937 0 0
34.5898 0 0
34.5898 0 0
34.686 0 0
34.686 0 0
34.7822 0 0
34.7822 0 0
34.8784 0 0
34.8784 0 0
34.9746 0 0
34.9746 0 0
35.0708 0 0
35.0708 0 0
35.167 0 0
35.167 0 0
35.2632 0 0
35.2632 0 0
35.3594 0 0
35.3594 0 0
35.4556 0 0
35.4556 0 0
35.5518 0 0
35.5518 0 0
35.6479 0 0
35.6479 0 0
35.7441 0 0
35.7441 0 0
35.8403 0 0
35.8403 0 0
35.9365 0 0
35.9365 0 0
36.0327 0 0
36.0327 0 0
36.1289 0 0
36.1289 0 0
36.2251 0 0
36.2251 0 0
36.3213 0 0
36.3213 0 0
36.4175 0 0
36.4175 0 0
36.5137 0 0
36.5137 0 0
36.6099 0 0
36.6099 0 0
36.7061 0 0
36.7061 0 0
36.8022 0 0
36.8022 0 0
36.8984 0 0
36.8984 0 0
36.9946 0 0
36.9946 0 0
37.0908 0 0
37.0908 0 0
37.187 0 0
37.187 0 0
37.2832 0 0
37.2832 0 0
37.3794 0 0
37.3794 0 0
37.4756 0 0
37.4756 0 0
37.5718 0 0
37.5718 0 0
37.668 0 0
37.668 0 0
37.7642 0 0
37.7642 0 0
37.8604 0 0
37.8604 0 0
37.9565 0 0
37.9565 0 0
38.0527 0 0
38.0527 0 0
38.1489 0 0
38.1489 0 0
38.2451 0 0
38.2451 0 0
38.3413 0 0
38.3413 0 0
38.4375 0 0
38.4375 0 0
38.5337 0 0
38.5337 0 0
38.6299 0 0
38.6299 0 0
38.7261 0 0
38.7261 0 0
38.8223 0 0
38.8223 0 0
38.9185 0 0
38.9185 0 0
39.0146 0 0
39.0146 0 0
39.1108 0 0
39.1108 0 0
39.207 0 0
39.207 0 0
39.3032 0 0
39.3032 0 0
39.3994 0 0
39.3994 0 0
39.4956 0 0
39.4956 0 0
39.5918 0 0
39.5918 0 0
39.688 0 0
39.688 0 0
39.7842 0 0
39.7842 0 0
39.8804 0 0
39.8804 0 0
39.9766 0 0
39.9766 0 0
40.0728 0 0
40.0728 0 0
40.1689 0 0
40.1689 0 0
40.2651 0 0
40.2651 0 0
40.3613 0 0
40.3613 0 0
40.4575 0 0
40.4575 0 0
40.5537 0 0
40.5537 0 0
40.6499 0 0
40.6499 0 0
40.7461 0 0
40.7461 0 0
40.8423 0 0
40.8423 0 0
40.9385 0 0
40.9385 0 0
41.0347 0 0
41.0347 0 0
41.1309 0 0
41.1309 0 0
41.2271 0 0
41.2271 0 0
[...]
POINT_DATA 2048
SCALARS solution_0 double 1
LOOKUP_TABLE default
-384.925 -381.724 -381.724 -379.719 -379.719 -378.671 -378.671 -378.389 -378.389 -378.721 -378.721 -379.544 -379.544 -380.758 -380.758 -382.282 -382.282 -384.05 -384.05 -386.008 -386.008 -388.113 -388.113 -390.326 -390.326 -392.617 -392.617 -394.961 -394.961 -397.337 -397.337 -399.727 -399.727 -402.116 -402.116 -404.492 -404.492 -406.844 -406.844 -409.165 -409.165 -411.445 -411.445 -413.681 -413.681 -415.865 -415.865 -417.996 -417.996 -420.068 -420.068 -422.079 -422.079 -424.027 -424.027 -425.91 -425.91 -427.727 -427.727 -429.477 -429.477 -431.158 -431.158 -432.771 -432.771 -434.316 -434.316 -435.791 -435.791 -437.198 -437.198 -438.535 -438.535 -439.805 -439.805 -441.007 -441.007 -442.141 -442.141 -443.209 -443.209 -444.211 -444.211 -445.147 -445.147 -446.019 -446.019 -446.826 -446.826 -447.571 -447.571 -448.254 -448.254 -448.876 -448.876 -449.437 -449.437 -449.939 -449.939 -450.383 -450.383 -450.769 -450.769 -451.098 -451.098 -451.372 -451.372 -451.591 -451.591 -451.757 -451.757 -451.87 -451.87 -451.93 -451.93 -451.94 -451.94 -451.9 -451.9 -451.811 -451.811 -451.674 -451.674 -451.49 -451.49 -451.259 -451.259 -450.983 -450.983 -450.662 -450.662 -450.297 -450.297 -449.89 -449.89 -449.441 -449.441 -448.951 -448.951 -448.42 -448.42 -447.85 -447.85 -447.241 -447.241 -446.594 -446.594 -445.911 -445.911 -445.191 -445.191 -444.435 -444.435 -443.645 -443.645 -442.821 -442.821 -441.963 -441.963 -441.073 -441.073 -440.151 -440.151 -439.198 -439.198 -438.215 -438.215 -437.201 -437.201 -436.159 -436.159 -435.088 -435.088 -433.99 -433.99 -432.864 -432.864 -431.712 -431.712 -430.534 -430.534 -429.331 -429.331 -428.103 -428.103 -426.851 -426.851 -425.576 -425.576 -424.277 -424.277 -422.957 -422.957 -421.614 -421.614 -420.251 -420.251 -418.867 -418.867 -417.462 -417.462 -416.039 -416.039 -414.596 -414.596 -413.134 -413.134 -411.654 -411.654 -410.157 -410.157 -408.643 -408.643 -407.112 -407.112 -405.565 -405.565 -404.003 -404.003 -402.425 -402.425 -400.832 -400.832 -399.225 -399.225 -397.604 -397.604 -395.97 -395.97 -394.323 -394.323 -392.663 -392.663 -390.991 -390.991 -389.307 -389.307 -387.612 -387.612 -385.905 -385.905 -384.188 -384.188 -382.461 -382.461 -380.724 -380.724 -378.977 -378.977 -377.221 -377.221 -375.456 -375.456 -373.683 -373.683 -371.902 -371.902 -370.113 -370.113 -368.316 -368.316 -366.512 -366.512 -364.702 -364.702 -362.885 -362.885 -361.062 -361.062 -359.232 -359.232 -357.398 -357.398 -355.558 -355.558 -353.712 -353.712 -351.863 -351.863 -350.008 -350.008 -348.15 -348.15 -346.288 -346.288 -344.422 -344.422 -342.552 -342.552 -340.68 -340.68 -338.804 -338.804 -336.926 -336.926 -335.046 -335.046 -333.163 -333.163 -331.278 -331.278 -329.392 -329.392 -327.505 -327.505 -325.616 -325.616 -323.726 -323.726 -321.835 -321.835 -319.943 -319.943 -318.052 -318.052 -316.16 -316.16 -314.268 -314.268 -312.376 -312.376 -310.485 -310.485 -308.594 -308.594 -306.704 -306.704 -304.815 -304.815 -302.927 -302.927 -301.04 -301.04 -299.155 -299.155 -297.272 -297.272 -295.39 -295.39 -293.51 -293.51 -291.632 -291.632 -289.757 -289.757 -287.884 -287.884 -286.014 -286.014 -284.146 -284.146 -282.281 -282.281 -280.419 -280.419 -278.561 -278.561 -276.705 -276.705 -274.853 -274.853 -273.005 -273.005 -271.16 -271.16 -269.319 -269.319 -267.482 -267.482 -265.649 -265.649 -263.82 -263.82 -261.996 -261.996 -260.175 -260.175 -258.359 -258.359 -256.548 -256.548 -254.742 -254.742 -252.94 -252.94 -251.143 -251.143 -249.351 -249.351 -247.564 -247.564 -245.782 -245.782 -244.006 -244.006 -242.235 -242.235 -240.469 -240.469 -238.709 -238.709 -236.954 -236.954 -235.205 -235.205 -233.462 -233.462 -231.725 -231.725 -229.993 -229.993 -228.268 -228.268 -226.548 -226.548 -224.835 -224.835 -223.128 -223.128 -221.427 -221.427 -219.732 -219.732 -218.044 -218.044 -216.362 -216.362 -214.686 -214.686 -213.017 -213.017 -211.355 -211.355 -209.699 -209.699 -208.05 -208.05 -206.408 -206.408 -204.772 -204.772 -203.143 -203.143 -201.521 -201.521 -199.906 -199.906 -198.298 -198.298 -196.697 -196.697 -195.103 -195.103 -193.516 -193.516 -191.936 -191.936 -190.363 -190.363 -188.797 -188.797 -187.239 -187.239 -185.687 -185.687 -184.143 -184.143 -182.606 -182.606 -181.077 -181.077 -179.555 -179.555 -178.04 -178.04 -176.532 -176.532 -175.032 -175.032 -173.539 -173.539 -172.054 -172.054 -170.576 -170.576 -169.106 -169.106 -167.643 -167.643 -166.187 -166.187 -164.739 -164.739 -163.299 -163.299 -161.866 -161.866 -160.441 -160.441 -159.023 -159.023 -157.612 -157.612 -156.21 -156.21 -154.814 -154.814 -153.427 -153.427 -152.047 -152.047 -150.674 -150.674 -149.309 -149.309 -147.952 -147.952 -146.602 -146.602 -145.26 -145.26 -143.925 -143.925 -142.598 -142.598 -141.279 -141.279 -139.967 -139.967 -138.662 -138.662 -137.365 -137.365 -136.076 -136.076 -134.794 -134.794 -133.52 -133.52 -132.254 -132.254 -130.995 -130.995 -129.743 -129.743 -128.499 -128.499 -127.262 -127.262 -126.033 -126.033 -124.812 -124.812 -123.597 -123.597 -122.391 -122.391 -121.191 -121.191 -120 -120 -118.815 -118.815 -117.638 -117.638 -116.468 -116.468 -115.306 -115.306 -114.151 -114.151 -113.004 -113.004 -111.863 -111.863 -110.73 -110.73 -109.605 -109.605 -108.486 -108.486 -107.375 -107.375 -106.271 -106.271 -105.174 -105.174 -104.085 -104.085 -103.002 -103.002 -101.927 -101.927 -100.859 -100.859 -99.7975 -99.7975 -98.7435 -98.7435 -97.6965 -97.6965 -96.6566 -96.6566 -95.6237 -95.6237 -94.5977 -94.5977 -93.5787 -93.5787 -92.5667 -92.5667 -91.5615 -91.5615 -90.5632 -90.5632 -89.5718 -89.5718 -88.5873 -88.5873 -87.6095 -87.6095 -86.6385 -86.6385 -85.6743 -85.6743 -84.7168 -84.7168 -83.766 -83.766 -82.8219 -82.8219 -81.8844 -81.8844 -80.9536 -80.9536 -80.0293 -80.0293 -79.1116 -79.1116 -78.2004 -78.2004 -77.2958 -77.2958 -76.3976 -76.3976 -75.5059 -75.5059 -74.6206 -74.6206 -73.7418 -73.7418 -72.8692 -72.8692 -72.003 -72.003 -71.1432 -71.1432 -70.2896 -70.2896 -69.4422 -69.4422 -68.6011 -68.6011 -67.7661 -67.7661 -66.9373 -66.9373 -66.1146 -66.1146 -65.2981 -65.2981 -64.4876 -64.4876 -63.6831 -63.6831 -62.8847 -62.8847 -62.0922 -62.0922 -61.3057 -61.3057 -60.525 -60.525 -59.7503 -59.7503 -58.9814 -58.9814 -58.2183 -58.2183 -57.4611 -57.4611 -56.7096 -56.7096 -55.9638 -55.9638 -55.2237 -55.2237 -54.4893 -54.4893 -53.7605 -53.7605 -53.0373 -53.0373 -52.3197 -52.3197 -51.6076 -51.6076 -50.901 -50.901 -50.1999 -50.1999 -49.5043 -49.5043 -48.814 -48.814 -48.1292 -48.1292 -47.4497 -47.4497 -46.7755 -46.7755 -46.1066 -46.1066 -45.443 -45.443 -44.7846 -44.7846 -44.1314 -44.1314 -43.4833 -43.4833 -42.8404 -42.8404 -42.2025 -42.2025 -41.5698 -41.5698 -40.9421 -40.9421 -40.3194 -40.3194 -39.7016 -39.7016 -39.0888 -39.0888 -38.4809 -38.4809 -37.8779 -37.8779 -37.2798 -37.2798 -36.6864 -36.6864 -36.0979 -36.0979 -35.5141 -35.5141 -34.935 -34.935 -34.3607 -34.3607 -33.791 -33.791 -33.2259 -33.2259 -32.6654 -32.6654 -32.1095 -32.1095 -31.5582 -31.5582 -31.0114 -31.0114 -30.469 -30.469 -29.9311 -29.9311 -29.3976 -29.3976 -28.8685 -28.8685 -28.3438 -28.3438 -27.8234 -27.8234 -27.3073 -27.3073 -26.7955 -26.7955 -26.2879 -26.2879 -25.7846 -25.7846 -25.2854 -25.2854 -24.7904 -24.7904 -24.2995 -24.2995 -23.8128 -23.8128 -23.3301 -23.3301 -22.8514 -22.8514 -22.3768 -22.3768 -21.9061 -21.9061 -21.4394 -21.4394 -20.9767 -20.9767 -20.5178 -20.5178 -20.0629 -20.0629 -19.6117 -19.6117 -19.1645 -19.1645 -18.721 -18.721 -18.2813 -18.2813 -17.8453 -17.8453 -17.4131 -17.4131 -16.9845 -16.9845 -16.5597 -16.5597 -16.1385 -16.1385 -15.7209 -15.7209 -15.3069 -15.3069 -14.8965 -14.8965 -14.4896 -14.4896 -14.0863 -14.0863 -13.6865 -13.6865 -13.2902 -13.2902 -12.8973 -12.8973 -12.5079 -12.5079 -12.1218 -12.1218 -11.7392 -11.7392 -11.36 -11.36 -10.9841 -10.9841 -10.6116 -10.6116 -10.2423 -10.2423 -9.87637 -9.87637 -9.51369 -9.51369 -9.15427 -9.15427 -8.79808 -8.79808 -8.44511 -8.44511 -8.09532 -8.09532 -7.74871 -7.74871 -7.40525 -7.40525 -7.06492 -7.06492 -6.7277 -6.7277 -6.39357 -6.39357 -6.06252 -6.06252 -5.73451 -5.73451 -5.40953 -5.40953 -5.08756 -5.08756 -4.76857 -4.76857 -4.45253 -4.45253 -4.13944 -4.13944 -3.82926 -3.82926 -3.52196 -3.52196 -3.21753 -3.21753 -2.91593 -2.91593 -2.61713 -2.61713 -2.32111 -2.32111 -2.02784 -2.02784 -1.73728 -1.73728 -1.4494 -1.4494 -1.16417 -1.16417 -0.881554 -0.881554 -0.601509 -0.601509 -0.323999 -0.323999 -0.0489842 -0.0489842 0.223577 0.223577 0.493728 0.493728 0.761514 0.761514 1.02698 1.02698 1.29018 1.29018 1.55115 1.55115 1.80996 1.80996 2.06664 2.06664 2.32126 2.32126 2.57387 2.57387 2.82453 2.82453 3.07329 3.07329 3.32021 3.32021 3.56536 3.56536 3.80878 3.80878 4.05054 4.05054 4.29069 4.29069 4.52931 4.52931 4.76644 4.76644 5.00215 5.00215 5.23649 5.23649 5.46953 5.46953 5.70132 5.70132 5.9319 5.9319 6.16135 6.16135 6.3897 6.3897 6.61702 6.61702 6.84333 6.84333 7.06869 7.06869 7.29314 7.29314 7.51672 7.51672 7.73946 7.73946 7.96138 7.96138 8.18253 8.18253 8.40291 8.40291 8.62255 8.62255 8.84146 8.84146 9.05965 9.05965 9.27712 9.27712 9.49388 9.49388 9.70991 9.70991 9.92522 9.92522 10.1398 10.1398 10.3536 10.3536 10.5666 10.5666 10.7787 10.7787 10.99 10.99 11.2005 11.2005 11.4099 11.4099 11.6184 11.6184 11.8259 11.8259 12.0323 12.0323 12.2375 12.2375 12.4415 12.4415 12.6442 12.6442 12.8456 12.8456 13.0456 13.0456 13.2441 13.2441 13.4411 13.4411 13.6364 13.6364 13.8301 13.8301 14.0219 14.0219 14.212 14.212 14.4001 14.4001 14.5863 14.5863 14.7703 14.7703 14.9523 14.9523 15.1321 15.1321 15.3097 15.3097 15.485 15.485 15.6579 15.6579 15.8284 15.8284 15.9965 15.9965 16.1621 16.1621 16.3252 16.3252 16.4857 16.4857 16.6436 16.6436 16.799 16.799 16.9517 16.9517 17.1018 17.1018 17.2492 17.2492 17.394 17.394 17.5362 17.5362 17.6758 17.6758 17.8128 17.8128 17.9472 17.9472 18.079 18.079 18.2084 18.2084 18.3352 18.3352 18.4597 18.4597 18.5817 18.5817 18.7014 18.7014 18.8188 18.8188 18.934 18.934 19.0471 19.0471 19.158 19.158 19.2669 19.2669 19.3738 19.3738 19.4789 19.4789 19.5821 19.5821 19.6836 19.6836 19.7835 19.7835 19.8817 19.8817 19.9785 19.9785 20.0738 20.0738 20.1677 20.1677 20.2604 20.2604 20.3519 20.3519 20.4422 20.4422 20.5315 20.5315 20.6198 20.6198 20.7072 20.7072 20.7938 20.7938 20.8795 20.8795 20.9646 20.9646 21.049 21.049 21.1328 21.1328 21.2161 21.2161 21.2989 21.2989 21.3813 21.3813 21.4632 21.4632 21.5449 21.5449 21.6262 21.6262 21.7073 21.7073 21.7882 21.7882 21.8688 21.8688 21.9494 21.9494 22.0297 22.0297 22.11 22.11 22.1902 22.1902 22.2704 22.2704 22.3505 22.3505 22.4305 22.4305 22.5106 22.5106 22.5906 22.5906 22.6706 22.6706 22.7507 22.7507 22.8307 22.8307 22.9108 22.9108 22.9909 22.9909 23.071 23.071 23.1511 23.1511 23.2313 23.2313 23.3114 23.3114 23.3915 23.3915 23.4717 23.4717 23.5518 23.5518 23.6319 23.6319 23.712 23.712 23.792 23.792 23.872 23.872 23.952 23.952 24.0319 24.0319 24.1117 24.1117 24.1914 24.1914 24.2711 24.2711 24.3506 24.3506 24.43 24.43 24.5093 24.5093 24.5885 24.5885 24.6675 24.6675 24.7464 24.7464 24.8251 24.8251 24.9037 24.9037 24.982 24.982 25.0602 25.0602 25.1382 25.1382 25.216 25.216 25.2936 25.2936 25.3709 25.3709 25.4481 25.4481 25.525 25.525 25.6016 25.6016 25.6781 25.6781 25.7543 25.7543 25.8302 25.8302 25.9059 25.9059 25.9813 25.9813 26.0565 26.0565 26.1314 26.1314 26.206 26.206 26.2803 26.2803 26.3544 26.3544 26.4282 26.4282 26.5017 26.5017 26.575 26.575 26.6479 26.6479 26.7206 26.7206 26.793 26.793 26.8651 26.8651 26.9369 26.9369 27.0084 27.0084 27.0796 27.0796 27.1506 27.1506 27.2212 27.2212 27.2916 27.2916 27.3617 27.3617 27.4315 27.4315 27.501 27.501 27.5702 27.5702 27.6391 27.6391 27.7077 27.7077 27.7761 27.7761 27.8442 27.8442 27.9119 27.9119 27.9794 27.9794 28.0466 28.0466 28.1135 28.1135 28.1802 28.1802 28.2465 28.2465 28.3126 28.3126 28.3784 28.3784 28.4439 28.4439 28.5091 28.5091 28.5741 28.5741 28.6388 28.6388 28.7031 28.7031 28.7673 28.7673 28.8311 28.8311 28.8947 28.8947 28.958 28.958 29.021 29.021 29.0837 29.0837 29.1462 29.1462 29.2084 29.2084 29.2703 29.2703 29.332 29.332 29.3934 29.3934 29.4545 29.4545 29.5154 29.5154 29.576 29.576 29.6363 29.6363 29.6963 29.6963 29.7561 29.7561 29.8156 29.8156 29.8749 29.8749 29.9339 29.9339 29.9926 29.9926 30.051 30.051 30.1092 30.1092 30.1671 30.1671 30.2248 30.2248 30.2822 30.2822 30.3393 30.3393 30.3962 30.3962 30.4528 30.4528 30.5091 30.5091 30.5652 30.5652 30.621 30.621 30.6765 30.6765 30.7318 30.7318 30.7868 30.7868 30.8415 30.8415 30.896 30.896 30.9502 30.9502 31.0041 31.0041 31.0578 31.0578 31.1112 31.1112 31.1643 31.1643 31.2172 31.2172 31.2698 31.2698 31.3221 31.3221 31.3741 31.3741 31.4259 31.4259 31.4774 31.4774 31.5287 31.5287 31.5796 31.5796 31.6303 31.6303 31.6807 31.6807 31.7309 31.7309 31.7807 31.7807 31.8303 31.8303 31.8796 31.8796 31.9286 31.9286 31.9773 31.9773 32.0258 32.0258 32.0739 32.0739 32.1218 32.1218 32.1694 32.1694 32.2167 32.2167 32.2637 32.2637 32.3104 32.3104 32.3569 32.3569 32.403 32.403 32.4488 32.4488 32.4944 32.4944 32.5396 32.5396 32.5846 32.5846 32.6292 32.6292 32.6735 32.6735 32.7176 32.7176 32.7613 32.7613 32.8047 32.8047 32.8478 32.8478 32.8906 32.8906 32.9331 32.9331 32.9752 32.9752 33.0171 33.0171 33.0586 33.0586 33.0997 33.0997 33.1406 33.1406 33.1811 33.1811 33.2213 33.2213 33.2612 33.2612 33.3007 33.3007 33.3399 33.3399 33.3788 33.3788 33.4173 33.4173 33.4554 33.4554 33.4932 33.4932 33.5307 33.5307 33.5678 33.5678 33.6046 33.6046 33.6409 33.6409 33.677 33.677 33.7126 33.7126 33.7479 33.7479 33.7828 33.7828 33.8174 33.8174 33.8515 33.8515 33.8853 33.8853 33.9187 33.9187 33.9517 33.9517 33.9843 33.9843 34.0166 34.0166 34.0484 34.0484 34.0798 34.0798 34.1108 34.1108 34.1414 34.1414 34.1716 34.1716 34.2014 34.2014 34.2308 34.2308 34.2597 34.2597 34.2882 34.2882 34.3163 34.3163 34.344 34.344 34.3712 34.3712 34.3979 34.3979 34.4243 34.4243 34.4501 34.4501 34.4755 34.4755 34.5005 34.5005 34.525 34.525 34.549 34.549 34.5725 34.5725 34.5956 34.5956 34.6182 34.6182 34.6403 34.6403 34.6619 34.6619 34.683 34.683 34.7036 34.7036 34.7237 34.7237 34.7433 34.7433 34.7624 34.7624 34.781 34.781 34.799 34.799 34.8165 34.8165 34.8335 34.8335 34.8499 34.8499 34.8658 34.8658 34.8811 34.8811 34.8959 34.8959 34.9102 34.9102 34.9238 34.9238 34.9369 34.9369 34.9494 34.9494 34.9613 34.9613 34.9727 34.9727 34.9834 34.9834 34.9936 34.9936 35.0031 35.0031 35.012 35.012 35.0203 35.0203 35.028 35.028 35.0351 35.0351 35.0415 35.0415 35.0473 35.0473 35.0524 35.0524 35.0569 35.0569 35.0607 35.0607 35.0639 35.0639 35.0664 35.0664 35.0682 35.0682 35.0693 35.0693 35.0698 35.0698 35.0695 35.0695 35.0685 35.0685 35.0668 35.0668 35.0644 35.0644 35.0613 35.0613 35.0575 35.0575 35.0529 35.0529 35.0475 35.0475 35.0414 35.0414 35.0346 35.0346 35.027 35.027 35.0186 35.0186 35.0094 35.0094 34.9995 34.9995 34.9887 34.9887 34.9772 34.9772 34.9648 34.9648 34.9516 34.9516 34.9376 34.9376 34.9228 34.9228 34.9071 34.9071 34.8906 34.8906 34.8732 34.8732 34.8549 34.8549 34.8358 34.8358 34.8158 34.8158 34.795 34.795 34.7732 34.7732 34.7505 34.7505 34.7269 34.7269 34.7024 34.7024 34.677 34.677 34.6506 34.6506 34.6233 34.6233 34.5951 34.5951 34.5659 34.5659 34.5357 34.5357 34.5045 34.5045 34.4724 34.4724 34.4393 34.4393 34.4051 34.4051 34.37 34.37 34.3338 34.3338 34.2967 34.2967 34.2584 34.2584 34.2192 34.2192 34.1789 34.1789 34.1375 34.1375 34.095 34.095 34.0515 34.0515 34.0069 34.0069 33.9612 33.9612 33.9144 33.9144 33.8664 33.8664 33.8174 33.8174 33.7672 33.7672 33.7159 33.7159 33.6634 33.6634 33.6098 33.6098 33.555 33.555 33.499 33.499 33.4418 33.4418 33.3835 33.3835 33.3239 33.3239 33.2631 33.2631 33.2011 33.2011 33.1378 33.1378 33.0733 33.0733 33.0076 33.0076 32.9406 32.9406 32.8723 32.8723 32.8028 32.8028 32.7319 32.7319 32.6598 32.6598 32.5863 32.5863 32.5116 32.5116 32.4355 32.4355 32.358 32.358 32.2792 32.2792 32.1991 32.1991 32.1176 32.1176 32.0347 32.0347 31.9504 31.9504 31.8648 31.8648 31.7777 31.7777 31.6892 31.6892 31.5993 31.5993 31.508 31.508 31.4152 31.4152 31.3209 31.3209 31.2252 31.2252 31.1281 31.1281 31.0294 31.0294 30.9292 30.9292 30.8276 30.8276 30.7244 30.7244 30.6198 30.6198 30.5135 30.5135 30.4058 30.4058 30.2965 30.2965 30.1856 30.1856 30.0732 30.0732 29.9592 29.9592 29.8436 29.8436 29.7264 29.7264 29.6076 29.6076 29.4872 29.4872 29.3652 29.3652 29.2415 29.2415 29.1162 29.1162 28.9892 28.9892 28.8606 28.8606 28.7303 28.7303 28.5983 28.5983 28.4646 28.4646 28.3292 28.3292 28.1922 28.1922 28.0534 28.0534 27.9128 27.9128 27.7706 27.7706 27.6266 27.6266 27.4808 27.4808 27.3333 27.3333 27.184 27.184 27.033 27.033 26.8801 26.8801 26.7255 26.7255 26.569 26.569 26.4107 26.4107 26.2507 26.2507 26.0887 26.0887 25.925 25.925 25.7594 25.7594 25.5919 25.5919 25.4226 25.4226 25.2514 25.2514 25.0784 25.0784 24.9034 24.9034 24.7266 24.7266 24.5478 24.5478 24.3672 24.3672 24.1846 24.1846 24.0002 24.0002 23.8137 23.8137 23.6254 23.6254 23.4351 23.4351 23.2429 23.2429 23.0487 23.0487 22.8525 22.8525 22.6544 22.6544 22.4543 22.4543 22.2522 22.2522 22.0481 22.0481 21.8421 21.8421 21.634 21.634 21.424 21.424 21.2119 21.2119 20.9978 20.9978 20.7817 20.7817 20.5635 20.5635 20.3434 20.3434 20.1212 20.1212 19.8969 19.8969 19.6707 19.6707 19.4423 19.4423 19.2119 19.2119 18.9795 18.9795 18.745 18.745 18.5085 18.5085 18.2698 18.2698 18.0291 18.0291 17.7864 17.7864 17.5415 17.5415 17.2946 17.2946 17.0456 
SCALARS solution_1 double 1
LOOKUP_TABLE default