# vtk DataFile Version 3.0
#This file was generated by the deal.II library on 2020/9/1 at 15:06:34
ASCII
DATASET UNSTRUCTURED_GRID

POINTS 2048 double
1.5 0 0
1.59619 0 0
1.59619 0 0
1.69238 0 0
1.69238 0 0
1.78857 0 0
1.78857 0 0
1.88477 0 0
1.88477 0 0
1.98096 0 0
1.98096 0 0
2.07715 0 0
2.07715 0 0
2.17334 0 0
2.17334 0 0
2.26953 0 0
2.26953 0 0
2.36572 0 0
2.36572 0 0
2.46191 0 0
2.46191 0 0
2.55811 0 0
2.55811 0 0
2.6543 0 0
2.6543 0 0
2.75049 0 0
2.75049 0 0
2.84668 0 0
2.84668 0 0
2.94287 0 0
2.94287 0 0
3.03906 0 0
3.03906 0 0
3.13525 0 0
3.13525 0 0
3.23145 0 0
3.23145 0 0
3.32764 0 0
3.32764 0 0
3.42383 0 0
3.42383 0 0
3.52002 0 0
3.52002 0 0
3.61621 0 0
3.61621 0 0
3.7124 0 0
3.7124 0 0
3.80859 0 0
3.80859 0 0
3.90479 0 0
3.90479 0 0
4.00098 0 0
4.00098 0 0
4.09717 0 0
4.09717 0 0
4.19336 0 0
4.19336 0 0
4.28955 0 0
4.28955 0 0
4.38574 0 0
4.38574 0 0
4.48193 0 0
4.48193 0 0
4.57812 0 0
4.57812 0 0
4.67432 0 0
4.67432 0 0
4.77051 0 0
4.77051 0 0
4.8667 0 0
4.8667 0 0
4.96289 0 0
4.96289 0 0
5.05908 0 0
5.05908 0 0
5.15527 0 0
5.15527 0 0
5.25146 0 0
5.25146 0 0
5.34766 0 0
5.34766 0 0
5.44385 0 0
5.44385 0 0
5.54004 0 0
5.54004 0 0
5.63623 0 0
5.63623 0 0
5.73242 0 0
5.73242 0 0
5.82861 0 0
5.82861 0 0
5.9248 0 0
5.9248 0 0
6.021 0 0
6.021 0 0
6.11719 0 0
6.11719 0 0
6.21338 0 0
6.21338 0 0
6.30957 0 0
6.30957 0 0
6.40576 0 0
6.40576 0 0
6.50195 0 0
6.50195 0 0
6.59814 0 0
6.59814 0 0
6.69434 0 0
6.69434 0 0
6.79053 0 0
6.79053 0 0
6.88672 0 0
6.88672 0 0
6.98291 0 0
6.98291 0 0
7.0791 0 0
7.0791 0 0
7.17529 0 0
7.17529 0 0
7.27148 0 0
7.27148 0 0
7.36768 0 0
7.36768 0 0
7.46387 0 0
7.46387 0 0
7.56006 0 0
7.56006 0 0
7.65625 0 0
7.65625 0 0
7.75244 0 0
7.75244 0 0
7.84863 0 0
7.84863 0 0
7.94482 0 0
7.94482 0 0
8.04102 0 0
8.04102 0 0
8.13721 0 0
8.13721 0 0
8.2334 0 0
8.2334 0 0
8.32959 0 0
8.32959 0 0
8.42578 0 0
8.42578 0 0
8.52197 0 0
8.52197 0 0
8.61816 0 0
8.61816 0 0
8.71436 0 0
8.71436 0 0
8.81055 0 0
8.81055 0 0
8.90674 0 0
8.90674 0 0
9.00293 0 0
9.00293 0 0
9.09912 0 0
9.09912 0 0
9.19531 0 0
9.19531 0 0
9.2915 0 0
9.2915 0 0
9.3877 0 0
9.3877 0 0
9.48389 0 0
9.48389 0 0
9.58008 0 0
9.58008 0 0
9.67627 0 0
9.67627 0 0
9.77246 0 0
9.77246 0 0
9.86865 0 0
9.86865 0 0
9.96484 0 0
9.96484 0 0
10.061 0 0
10.061 0 0
10.1572 0 0
10.1572 0 0
10.2534 0 0
10.2534 0 0
10.3496 0 0
10.3496 0 0
10.4458 0 0
10.4458 0 0
10.542 0 0
10.542 0 0
10.6382 0 0
10.6382 0 0
10.7344 0 0
10.7344 0 0
10.8306 0 0
10.8306 0 0
10.9268 0 0
10.9268 0 0
11.0229 0 0
11.0229 0 0
11.1191 0 0
11.1191 0 0
11.2153 0 0
11.2153 0 0
11.3115 0 0
11.3115 0 0
11.4077 0 0
11.4077 0 0
11.5039 0 0
11.5039 0 0
11.6001 0 0
11.6001 0 0
11.6963 0 0
11.6963 0 0
11.7925 0 0
11.7925 0 0
11.8887 0 0
11.8887 0 0
11.9849 0 0
11.9849 0 0
12.0811 0 0
12.0811 0 0
12.1772 0 0
12.1772 0 0
12.2734 0 0
12.2734 0 0
12.3696 0 0
12.3696 0 0
12.4658 0 0
12.4658 0 0
12.562 0 0
12.562 0 0
12.6582 0 0
12.6582 0 0
12.7544 0 0
12.7544 0 0
12.8506 0 0
12.8506 0 0
12.9468 0 0
12.9468 0 0
13.043 0 0
13.043 0 0
13.1392 0 0
13.1392 0 0
13.2354 0 0
13.2354 0 0
13.3315 0 0
13.3315 0 0
13.4277 0 0
13.4277 0 0
13.5239 0 0
13.5239 0 0
13.6201 0 0
13.6201 0 0
13.7163 0 0
13.7163 0 0
13.8125 0 0
13.8125 0 0
13.9087 0 0
13.9087 0 0
14.0049 0 0
14.0049 0 0
14.1011 0 0
14.1011 0 0
14.1973 0 0
14.1973 0 0
14.2935 0 0
14.2935 0 0
14.3896 0 0
14.3896 0 0
14.4858 0 0
14.4858 0 0
14.582 0 0
14.582 0 0
14.6782 0 0
14.6782 0 0
14.7744 0 0
14.7744 0 0
14.8706 0 0
14.8706 0 0
14.9668 0 0
14.9668 0 0
15.063 0 0
15.063 0 0
15.1592 0 0
15.1592 0 0
15.2554 0 0
15.2554 0 0
15.3516 0 0
15.3516 0 0
15.4478 0 0
15.4478 0 0
15.5439 0 0
15.5439 0 0
15.6401 0 0
15.6401 0 0
15.7363 0 0
15.7363 0 0
15.8325 0 0
15.8325 0 0
15.9287 0 0
15.9287 0 0
16.0249 0 0
16.0249 0 0
16.1211 0 0
16.1211 0 0
16.2173 0 0
16.2173 0 0
16.3135 0 0
16.3135 0 0
16.4097 0 0
16.4097 0 0
16.5059 0 0
16.5059 0 0
16.6021 0 0
16.6021 0 0
16.6982 0 0
16.6982 0 0
16.7944 0 0
16.7944 0 0
16.8906 0 0
16.8906 0 0
16.9868 0 0
16.9868 0 0
17.083 0 0
17.083 0 0
17.1792 0 0
17.1792 0 0
17.2754 0 0
17.2754 0 0
17.3716 0 0
17.3716 0 0
17.4678 0 0
17.4678 0 0
17.564 0 0
17.564 0 0
17.6602 0 0
17.6602 0 0
17.7563 0 0
17.7563 0 0
17.8525 0 0
17.8525 0 0
17.9487 0 0
17.9487 0 0
18.0449 0 0
18.0449 0 0
18.1411 0 0
18.1411 0 0
18.2373 0 0
18.2373 0 0
18.3335 0 0
18.3335 0 0
18.4297 0 0
18.4297 0 0
18.5259 0 0
18.5259 0 0
18.6221 0 0
18.6221 0 0
18.7183 0 0
18.7183 0 0
18.8145 0 0
18.8145 0 0
18.9106 0 0
18.9106 0 0
19.0068 0 0
19.0068 0 0
19.103 0 0
19.103 0 0
19.1992 0 0
19.1992 0 0
19.2954 0 0
19.2954 0 0
19.3916 0 0
19.3916 0 0
19.4878 0 0
19.4878 0 0
19.584 0 0
19.584 0 0
19.6802 0 0
19.6802 0 0
19.7764 0 0
19.7764 0 0
19.8726 0 0
19.8726 0 0
19.9688 0 0
19.9688 0 0
20.0649 0 0
20.0649 0 0
20.1611 0 0
20.1611 0 0
20.2573 0 0
20.2573 0 0
20.3535 0 0
20.3535 0 0
20.4497 0 0
20.4497 0 0
20.5459 0 0
20.5459 0 0
20.6421 0 0
20.6421 0 0
20.7383 0 0
20.7383 0 0
20.8345 0 0
20.8345 0 0
20.9307 0 0
20.9307 0 0
21.0269 0 0
21.0269 0 0
21.123 0 0
21.123 0 0
21.2192 0 0
21.2192 0 0
21.3154 0 0
21.3154 0 0
21.4116 0 0
21.4116 0 0
21.5078 0 0
21.5078 0 0
21.604 0 0
21.604 0 0
21.7002 0 0
21.7002 0 0
21.7964 0 0
21.7964 0 0
21.8926 0 0
21.8926 0 0
21.9888 0 0
21.9888 0 0
22.085 0 0
22.085 0 0
22.1812 0 0
22.1812 0 0
22.2773 0 0
22.2773 0 0
22.3735 0 0
22.3735 0 0
22.4697 0 0
22.4697 0 0
22.5659 0 0
22.5659 0 0
22.6621 0 0
22.6621 0 0
22.7583 0 0
22.7583 0 0
22.8545 0 0
22.8545 0 0
22.9507 0 0
22.9507 0 0
23.0469 0 0
23.0469 0 0
23.1431 0 0
23.1431 0 0
23.2393 0 0
23.2393 0 0
23.3354 0 0
23.3354 0 0
23.4316 0 0
23.4316 0 0
23.5278 0 0
23.5278 0 0
23.624 0 0
23.624 0 0
23.7202 0 0
23.7202 0 0
23.8164 0 0
23.8164 0 0
23.9126 0 0
23.9126 0 0
24.0088 0 0
24.0088 0 0
24.105 0 0
24.105 0 0
24.2012 0 0
24.2012 0 0
24.2974 0 0
24.2974 0 0
24.3936 0 0
24.3936 0 0
24.4897 0 0
24.4897 0 0
24.5859 0 0
24.5859 0 0
24.6821 0 0
24.6821 0 0
24.7783 0 0
24.7783 0 0
24.8745 0 0
24.8745 0 0
24.9707 0 0
24.9707 0 0
25.0669 0 0
25.0669 0 0
25.1631 0 0
25.1631 0 0
25.2593 0 0
25.2593 0 0
25.3555 0 0
25.3555 0 0
25.4517 0 0
25.4517 0 0
25.5479 0 0
25.5479 0 0
25.644 0 0
25.644 0 0
25.7402 0 0
25.7402 0 0
25.8364 0 0
25.8364 0 0
25.9326 0 0
25.9326 0 0
26.0288 0 0
26.0288 0 0
26.125 0 0
26.125 0 0
26.2212 0 0
26.2212 0 0
26.3174 0 0
26.3174 0 0
26.4136 0 0
26.4136 0 0
26.5098 0 0
26.5098 0 0
26.606 0 0
26.606 0 0
26.7021 0 0
26.7021 0 0
26.7983 0 0
26.7983 0 0
26.8945 0 0
26.8945 0 0
26.9907 0 0
26.9907 0 0
27.0869 0 0
27.0869 0 0
27.1831 0 0
27.1831 0 0
27.2793 0 0
27.2793 0 0
27.3755 0 0
27.3755 0 0
27.4717 0 0
27.4717 0 0
27.5679 0 0
27.5679 0 0
27.6641 0 0
27.6641 0 0
27.7603 0 0
27.7603 0 0
27.8564 0 0
27.8564 0 0
27.9526 0 0
27.9526 0 0
28.0488 0 0
28.0488 0 0
28.145 0 0
28.145 0 0
28.2412 0 0
28.2412 0 0
28.3374 0 0
28.3374 0 0
28.4336 0 0
28.4336 0 0
28.5298 0 0
28.5298 0 0
28.626 0 0
28.626 0 0
28.7222 0 0
28.7222 0 0
28.8184 0 0
28.8184 0 0
28.9146 0 0
28.9146 0 0
29.0107 0 0
29.0107 0 0
29.1069 0 0
29.1069 0 0
29.2031 0 0
29.2031 0 0
29.2993 0 0
29.2993 0 0
29.3955 0 0
29.3955 0 0
29.4917 0 0
29.4917 0 0
29.5879 0 0
29.5879 0 0
29.6841 0 0
29.6841 0 0
29.7803 0 0
29.7803 0 0
29.8765 0 0
29.8765 0 0
29.9727 0 0
29.9727 0 0
30.0688 0 0
30.0688 0 0
30.165 0 0
30.165 0 0
30.2612 0 0
30.2612 0 0
30.3574 0 0
30.3574 0 0
30.4536 0 0
30.4536 0 0
30.5498 0 0
30.5498 0 0
30.646 0 0
30.646 0 0
30.7422 0 0
30.7422 0 0
30.8384 0 0
30.8384 0 0
30.9346 0 0
30.9346 0 0
31.0308 0 0
31.0308 0 0
31.127 0 0
31.127 0 0
31.2231 0 0
31.2231 0 0
31.3193 0 0
31.3193 0 0
31.4155 0 0
31.4155 0 0
31.5117 0 0
31.5117 0 0
31.6079 0 0
31.6079 0 0
31.7041 0 0
31.7041 0 0
31.8003 0 0
31.8003 0 0
31.8965 0 0
31.8965 0 0
31.9927 0 0
31.9927 0 0
32.0889 0 0
32.0889 0 0
32.1851 0 0
32.1851 0 0
32.2812 0 0
32.2812 0 0
32.3774 0 0
32.3774 0 0
32.4736 0 0
32.4736 0 0
32.5698 0 0
32.5698 0 0
32.666 0 0
32.666 0 0
32.7622 0 0
32.7622 0 0
32.8584 0 0
32.8584 0 0
32.9546 0 0
32.9546 0 0
33.0508 0 0
33.0508 0 0
33.147 0 0
33.147 0 0
33.2432 0 0
33.2432 0 0
33.3394 0 0
33.3394 0 0
33.4355 0 0
33.4355 0 0
33.5317 0 0
33.5317 0 0
33.6279 0 0
33.6279 0 0
33.7241 0 0
33.7241 0 0
33.8203 0 0
33.8203 0 0
33.9165 0 0
33.9165 0 0
34.0127 0 0
34.0127 0 0
34.1089 0 0
34.1089 0 0
34.2051 0 0
34.2051 0 0
34.3013 0 0
34.3013 0 0
34.3975 0 0
34.3975 0 0
34.4937 0 0
34.4937 0 0
34.5898 0 0
34.5898 0 0
34.686 0 0
34.686 0 0
34.7822 0 0
34.7822 0 0
34.8784 0 0
34.8784 0 0
34.9746 0 0
34.9746 0 0
35.0708 0 0
35.0708 0 0
35.167 0 0
35.167 0 0
35.2632 0 0
35.2632 0 0
35.3594 0 0
35.3594 0 0
35.4556 0 0
35.4556 0 0
35.5518 0 0
35.5518 0 0
35.6479 0 0
35.6479 0 0
35.7441 0 0
35.7441 0 0
35.8403 0 0
35.8403 0 0
35.9365 0 0
35.9365 0 0
36.0327 0 0
36.0327 0 0
36.1289 0 0
36.1289 0 0
36.2251 0 0
36.2251 0 0
36.3213 0 0
36.3213 0 0
36.4175 0 0
36.4175 0 0
36.5137 0 0
36.5137 0 0
36.6099 0 0
36.6099 0 0
36.7061 0 0
36.7061 0 0
36.8022 0 0
36.8022 0 0
36.8984 0 0
36.8984 0 0
36.9946 0 0
36.9946 0 0
37.0908 0 0
37.0908 0 0
37.187 0 0
37.187 0 0
37.2832 0 0
37.2832 0 0
37.3794 0 0
37.3794 0 0
37.4756 0 0
37.4756 0 0
37.5718 0 0
37.5718 0 0
37.668 0 0
37.668 0 0
37.7642 0 0
37.7642 0 0
37.8604 0 0
37.8604 0 0
37.9565 0 0
37.9565 0 0
38.0527 0 0
38.0527 0 0
38.1489 0 0
38.1489 0 0
38.2451 0 0
38.2451 0 0
38.3413 0 0
38.3413 0 0
38.4375 0 0
38.4375 0 0
38.5337 0 0
38.5337 0 0
38.6299 0 0
38.6299 0 0
38.7261 0 0
38.7261 0 0
38.8223 0 0
38.8223 0 0
38.9185 0 0
38.9185 0 0
39.0146 0 0
39.0146 0 0
39.1108 0 0
39.1108 0 0
39.207 0 0
39.207 0 0
39.3032 0 0
39.3032 0 0
39.3994 0 0
39.3994 0 0
39.4956 0 0
39.4956 0 0
39.5918 0 0
39.5918 0 0
39.688 0 0
39.688 0 0
39.7842 0 0
39.7842 0 0
39.8804 0 0
39.8804 0 0
39.9766 0 0
39.9766 0 0
40.0728 0 0
40.0728 0 0
40.1689 0 0
40.1689 0 0
40.2651 0 0
40.2651 0 0
40.3613 0 0
40.3613 0 0
40.4575 0 0
40.4575 0 0
40.5537 0 0
40.5537 0 0
40.6499 0 0
40.6499 0 0
40.7461 0 0
40.7461 0 0
40.8423 0 0
40.8423 0 0
40.9385 0 0
40.9385 0 0
41.0347 0 0
41.0347 0 0
41.1309 0 0
41.1309 0 0
41.2271 0 0
41.2271 0 0
[...]
POINT_DATA 2048
SCALARS solution_0 double 1
LOOKUP_TABLE default
-40.3711 -39.1419 -39.1419 -38.0083 -38.0083 -36.9625 -36.9625 -35.9963 -35.9963 -35.1018 -35.1018 -34.2715 -34.2715 -33.4986 -33.4986 -32.7769 -32.7769 -32.1008 -32.1008 -31.4652 -31.4652 -30.8657 -30.8657 -30.2983 -30.2983 -29.7595 -29.7595 -29.2461 -29.2461 -28.7554 -28.7554 -28.2848 -28.2848 -27.8322 -27.8322 -27.3956 -27.3956 -26.9732 -26.9732 -26.5634 -26.5634 -26.1649 -26.1649 -25.7765 -25.7765 -25.397 -25.397 -25.0254 -25.0254 -24.6608 -24.6608 -24.3025 -24.3025 -23.9497 -23.9497 -23.6018 -23.6018 -23.2583 -23.2583 -22.9186 -22.9186 -22.5822 -22.5822 -22.2489 -22.2489 -21.9181 -21.9181 -21.5897 -21.5897 -21.2632 -21.2632 -20.9385 -20.9385 -20.6153 -20.6153 -20.2935 -20.2935 -19.9728 -19.9728 -19.6532 -19.6532 -19.3344 -19.3344 -19.0163 -19.0163 -18.6989 -18.6989 -18.3821 -18.3821 -18.0658 -18.0658 -17.7499 -17.7499 -17.4344 -17.4344 -17.1192 -17.1192 -16.8044 -16.8044 -16.4898 -16.4898 -16.1755 -16.1755 -15.8615 -15.8615 -15.5477 -15.5477 -15.2342 -15.2342 -14.921 -14.921 -14.608 -14.608 -14.2953 -14.2953 -13.9829 -13.9829 -13.6708 -13.6708 -13.3591 -13.3591 -13.0477 -13.0477 -12.7368 -12.7368 -12.4262 -12.4262 -12.1161 -12.1161 -11.8066 -11.8066 -11.4975 -11.4975 -11.189 -11.189 -10.881 -10.881 -10.5738 -10.5738 -10.2671 -10.2671 -9.96121 -9.96121 -9.65602 -9.65602 -9.35162 -9.35162 -9.04804 -9.04804 -8.74531 -8.74531 -8.44347 -8.44347 -8.14256 -8.14256 -7.84263 -7.84263 -7.5437 -7.5437 -7.24582 -7.24582 -6.94902 -6.94902 -6.65334 -6.65334 -6.35882 -6.35882 -6.06549 -6.06549 -5.77338 -5.77338 -5.48254 -5.48254 -5.193 -5.193 -4.90479 -4.90479 -4.61794 -4.61794 -4.33249 -4.33249 -4.04847 -4.04847 -3.76591 -3.76591 -3.48485 -3.48485 -3.2053 -3.2053 -2.92731 -2.92731 -2.6509 -2.6509 -2.3761 -2.3761 -2.10293 -2.10293 -1.83143 -1.83143 -1.56162 -1.56162 -1.29352 -1.29352 -1.02716 -1.02716 -0.762568 -0.762568 -0.49976 -0.49976 -0.238761 -0.238761 0.0204072 0.0204072 0.277723 0.277723 0.533165 0.533165 0.786715 0.786715 1.03835 1.03835 1.28806 1.28806 1.53582 1.53582 1.78162 1.78162 2.02543 2.02543 2.26725 2.26725 2.50705 2.50705 2.74483 2.74483 2.98057 2.98057 3.21425 3.21425 3.44587 3.44587 3.67541 3.67541 3.90286 3.90286 4.12821 4.12821 4.35145 4.35145 4.57257 4.57257 4.79156 4.79156 5.00841 5.00841 5.22312 5.22312 5.43567 5.43567 5.64607 5.64607 5.8543 5.8543 6.06035 6.06035 6.26424 6.26424 6.46594 6.46594 6.66545 6.66545 6.86278 6.86278 7.05791 7.05791 7.25085 7.25085 7.44159 7.44159 7.63013 7.63013 7.81647 7.81647 8.00061 8.00061 8.18254 8.18254 8.36228 8.36228 8.53981 8.53981 8.71514 8.71514 8.88827 8.88827 9.0592 9.0592 9.22794 9.22794 9.39448 9.39448 9.55882 9.55882 9.72098 9.72098 9.88096 9.88096 10.0387 10.0387 10.1944 10.1944 10.3478 10.3478 10.4991 10.4991 10.6482 10.6482 10.7951 10.7951 10.9399 10.9399 11.0826 11.0826 11.2231 11.2231 11.3614 11.3614 11.4977 11.4977 11.6318 11.6318 11.7638 11.7638 11.8937 11.8937 12.0215 12.0215 12.1472 12.1472 12.2708 12.2708 12.3924 12.3924 12.5119 12.5119 12.6293 12.6293 12.7447 12.7447 12.858 12.858 12.9693 12.9693 13.0786 13.0786 13.1859 13.1859 13.2912 13.2912 13.3945 13.3945 13.4958 13.4958 13.5951 13.5951 13.6925 13.6925 13.7879 13.7879 13.8814 13.8814 13.973 13.973 14.0627 14.0627 14.1504 14.1504 14.2363 14.2363 14.3203 14.3203 14.4024 14.4024 14.4826 14.4826 14.561 14.561 14.6376 14.6376 14.7124 14.7124 14.7853 14.7853 14.8565 14.8565 14.9259 14.9259 14.9935 14.9935 15.0593 15.0593 15.1234 15.1234 15.1858 15.1858 15.2464 15.2464 15.3053 15.3053 15.3626 15.3626 15.4181 15.4181 15.472 15.472 15.5243 15.5243 15.5749 15.5749 15.6238 15.6238 15.6712 15.6712 15.7169 15.7169 15.7611 15.7611 15.8037 15.8037 15.8447 15.8447 15.8842 15.8842 15.9221 15.9221 15.9585 15.9585 15.9935 15.9935 16.0269 16.0269 16.0588 16.0588 16.0893 16.0893 16.1183 16.1183 16.1459 16.1459 16.172 16.172 16.1968 16.1968 16.2201 16.2201 16.242 16.242 16.2626 16.2626 16.2818 16.2818 16.2997 16.2997 16.3162 16.3162 16.3314 16.3314 16.3453 16.3453 16.3579 16.3579 16.3693 16.3693 16.3793 16.3793 16.3881 16.3881 16.3957 16.3957 16.402 16.402 16.4071 16.4071 16.411 16.411 16.4137 16.4137 16.4152 16.4152 16.4155 16.4155 16.4147 16.4147 16.4127 16.4127 16.4096 16.4096 16.4053 16.4053 16.4 16.4 16.3935 16.3935 16.3859 16.3859 16.3773 16.3773 16.3675 16.3675 16.3567 16.3567 16.3448 16.3448 16.3319 16.3319 16.3179 16.3179 16.3028 16.3028 16.2868 16.2868 16.2697 16.2697 16.2515 16.2515 16.2324 16.2324 16.2122 16.2122 16.1911 16.1911 16.1689 16.1689 16.1457 16.1457 16.1215 16.1215 16.0963 16.0963 16.0701 16.0701 16.0429 16.0429 16.0148 16.0148 15.9856 15.9856 15.9554 15.9554 15.9242 15.9242 15.892 15.892 15.8588 15.8588 15.8246 15.8246 15.7894 15.7894 15.7532 15.7532 15.716 15.716 15.6778 15.6778 15.6385 15.6385 15.5982 15.5982 15.557 15.557 15.5147 15.5147 15.4714 15.4714 15.4271 15.4271 15.3818 15.3818 15.3355 15.3355 15.2883 15.2883 15.2401 15.2401 15.1909 15.1909 15.1408 15.1408 15.0898 15.0898 15.0379 15.0379 14.9852 14.9852 14.9317 14.9317 14.8774 14.8774 14.8223 14.8223 14.7666 14.7666 14.7102 14.7102 14.6532 14.6532 14.5957 14.5957 14.5378 14.5378 14.4794 14.4794 14.4208 14.4208 14.3619 14.3619 14.3029 14.3029 14.2438 14.2438 14.1847 14.1847 14.1258 14.1258 14.0671 14.0671 14.0087 14.0087 13.9507 13.9507 13.8933 13.8933 13.8365 13.8365 13.7805 13.7805 13.7253 13.7253 13.6711 13.6711 13.618 13.618 13.566 13.566 13.5153 13.5153 13.4659 13.4659 13.418 13.418 13.3717 13.3717 13.3269 13.3269 13.2838 13.2838 13.2425 13.2425 13.2029 13.2029 13.1652 13.1652 13.1293 13.1293 13.0953 13.0953 13.0632 13.0632 13.0329 13.0329 13.0045 13.0045 12.9779 12.9779 12.9531 12.9531 12.93 12.93 12.9085 12.9085 12.8886 12.8886 12.8701 12.8701 12.853 12.853 12.8371 12.8371 12.8223 12.8223 12.8084 12.8084 12.7953 12.7953 12.7828 12.7828 12.7707 12.7707 12.7589 12.7589 12.7471 12.7471 12.7352 12.7352 12.723 12.723 12.7103 12.7103 12.6968 12.6968 12.6823 12.6823 12.6668 12.6668 12.6499 12.6499 12.6315 12.6315 12.6114 12.6114 12.5894 12.5894 12.5654 12.5654 12.5392 12.5392 12.5106 12.5106 12.4795 12.4795 12.4458 12.4458 12.4093 12.4093 12.37 12.37 12.3279 12.3279 12.2827 12.2827 12.2345 12.2345 12.1832 12.1832 12.1288 12.1288 12.0714 12.0714 12.0109 12.0109 11.9473 11.9473 11.8807 11.8807 11.8111 11.8111 11.7386 11.7386 11.6634 11.6634 11.5854 11.5854 11.5048 11.5048 11.4217 11.4217 11.3363 11.3363 11.2486 11.2486 11.1588 11.1588 11.0671 11.0671 10.9735 10.9735 10.8784 10.8784 10.7818 10.7818 10.6838 10.6838 10.5847 10.5847 10.4847 10.4847 10.3837 10.3837 10.2822 10.2822 10.1801 10.1801 10.0777 10.0777 9.97505 9.97505 9.87235 9.87235 9.76973 9.76973 9.66733 9.66733 9.56525 9.56525 9.46364 9.46364 9.36258 9.36258 9.2622 9.2622 9.16258 9.16258 9.06381 9.06381 8.96598 8.96598 8.86916 8.86916 8.7734 8.7734 8.67877 8.67877 8.58532 8.58532 8.49308 8.49308 8.4021 8.4021 8.3124 8.3124 8.224 8.224 8.13692 8.13692 8.05117 8.05117 7.96675 7.96675 7.88366 7.88366 7.80189 7.80189 7.72144 7.72144 7.6423 7.6423 7.56444 7.56444 7.48784 7.48784 7.41248 7.41248 7.33834 7.33834 7.26539 7.26539 7.1936 7.1936 7.12293 7.12293 7.05336 7.05336 6.98486 6.98486 6.91738 6.91738 6.8509 6.8509 6.78539 6.78539 6.7208 6.7208 6.65711 6.65711 6.59428 6.59428 6.53228 6.53228 6.47108 6.47108 6.41065 6.41065 6.35095 6.35095 6.29196 6.29196 6.23365 6.23365 6.17599 6.17599 6.11896 6.11896 6.06253 6.06253 6.00667 6.00667 5.95137 5.95137 5.89661 5.89661 5.84235 5.84235 5.78859 5.78859 5.7353 5.7353 5.68247 5.68247 5.63008 5.63008 5.57811 5.57811 5.52656 5.52656 5.4754 5.4754 5.42463 5.42463 5.37423 5.37423 5.32419 5.32419 5.27451 5.27451 5.22517 5.22517 5.17616 5.17616 5.12748 5.12748 5.07912 5.07912 5.03107 5.03107 4.98333 4.98333 4.93588 4.93588 4.88873 4.88873 4.84187 4.84187 4.79528 4.79528 4.74898 4.74898 4.70295 4.70295 4.6572 4.6572 4.61171 4.61171 4.56648 4.56648 4.52152 4.52152 4.47681 4.47681 4.43235 4.43235 4.38815 4.38815 4.3442 4.3442 4.3005 4.3005 4.25704 4.25704 4.21382 4.21382 4.17085 4.17085 4.12811 4.12811 4.08561 4.08561 4.04335 4.04335 4.00132 4.00132 3.95953 3.95953 3.91796 3.91796 3.87663 3.87663 3.83552 3.83552 3.79464 3.79464 3.75398 3.75398 3.71355 3.71355 3.67333 3.67333 3.63334 3.63334 3.59357 3.59357 3.55402 3.55402 3.51468 3.51468 3.47556 3.47556 3.43666 3.43666 3.39797 3.39797 3.35949 3.35949 3.32122 3.32122 3.28316 3.28316 3.24531 3.24531 3.20766 3.20766 3.17022 3.17022 3.13299 3.13299 3.09596 3.09596 3.05913 3.05913 3.02251 3.02251 2.98608 2.98608 2.94985 2.94985 2.91383 2.91383 2.878 2.878 2.84236 2.84236 2.80692 2.80692 2.77167 2.77167 2.73662 2.73662 2.70175 2.70175 2.66708 2.66708 2.63259 2.63259 2.5983 2.5983 2.56419 2.56419 2.53027 2.53027 2.49653 2.49653 2.46297 2.46297 2.4296 2.4296 2.39641 2.39641 2.3634 2.3634 2.33057 2.33057 2.29792 2.29792 2.26544 2.26544 2.23315 2.23315 2.20103 2.20103 2.16908 2.16908 2.1373 2.1373 2.1057 2.1057 2.07427 2.07427 2.04301 2.04301 2.01192 2.01192 1.981 1.981 1.95025 1.95025 1.91966 1.91966 1.88924 1.88924 1.85898 1.85898 1.82889 1.82889 1.79895 1.79895 1.76919 1.76919 1.73958 1.73958 1.71013 1.71013 1.68084 1.68084 1.65171 1.65171 1.62273 1.62273 1.59391 1.59391 1.56525 1.56525 1.53674 1.53674 1.50839 1.50839 1.48019 1.48019 1.45213 1.45213 1.42423 1.42423 1.39648 1.39648 1.36888 1.36888 1.34143 1.34143 1.31413 1.31413 1.28697 1.28697 1.25995 1.25995 1.23308 1.23308 1.20636 1.20636 1.17978 1.17978 1.15334 1.15334 1.12704 1.12704 1.10088 1.10088 1.07487 1.07487 1.04899 1.04899 1.02325 1.02325 0.997647 0.997647 0.972181 0.972181 0.946851 0.946851 0.921656 0.921656 0.896596 0.896596 0.871668 0.871668 0.846874 0.846874 0.822211 0.822211 0.79768 0.79768 0.773279 0.773279 0.749008 0.749008 0.724866 0.724866 0.700853 0.700853 0.676966 0.676966 0.653207 0.653207 0.629574 0.629574 0.606066 0.606066 0.582683 0.582683 0.559424 0.559424 0.536288 0.536288 0.513275 0.513275 0.490384 0.490384 0.467615 0.467615 0.444966 0.444966 0.422437 0.422437 0.400027 0.400027 0.377737 0.377737 0.355565 0.355565 0.33351 0.33351 0.311573 0.311573 0.289752 0.289752 0.268047 0.268047 0.246457 0.246457 0.224982 0.224982 0.203622 0.203622 0.182376 0.182376 0.161243 0.161243 0.140223 0.140223 0.119316 0.119316 0.0985212 0.0985212 0.0778381 0.0778381 0.0572664 0.0572664 0.036806 0.036806 0.0164564 0.0164564 -0.00378266 -0.00378266 -0.0239113 -0.0239113 -0.0439299 -0.0439299 -0.0638385 -0.0638385 -0.0836373 -0.0836373 -0.103326 -0.103326 -0.122906 -0.122906 -0.142376 -0.142376 -0.161736 -0.161736 -0.180987 -0.180987 -0.200128 -0.200128 -0.219159 -0.219159 -0.238081 -0.238081 -0.256892 -0.256892 -0.275593 -0.275593 -0.294183 -0.294183 -0.312662 -0.312662 -0.33103 -0.33103 -0.349286 -0.349286 -0.36743 -0.36743 -0.385461 -0.385461 -0.403379 -0.403379 -0.421183 -0.421183 -0.438873 -0.438873 -0.456448 -0.456448 -0.473907 -0.473907 -0.49125 -0.49125 -0.508476 -0.508476 -0.525584 -0.525584 -0.542573 -0.542573 -0.559443 -0.559443 -0.576192 -0.576192 -0.592821 -0.592821 -0.609328 -0.609328 -0.625712 -0.625712 -0.641972 -0.641972 -0.658108 -0.658108 -0.674119 -0.674119 -0.690004 -0.690004 -0.705762 -0.705762 -0.721393 -0.721393 -0.736895 -0.736895 -0.752268 -0.752268 -0.767511 -0.767511 -0.782624 -0.782624 -0.797606 -0.797606 -0.812456 -0.812456 -0.827174 -0.827174 -0.84176 -0.84176 -0.856212 -0.856212 -0.870531 -0.870531 -0.884717 -0.884717 -0.898769 -0.898769 -0.912687 -0.912687 -0.926471 -0.926471 -0.940121 -0.940121 -0.953637 -0.953637 -0.967019 -0.967019 -0.980267 -0.980267 -0.993382 -0.993382 -1.00636 -1.00636 -1.01921 -1.01921 -1.03193 -1.03193 -1.04451 -1.04451 -1.05697 -1.05697 -1.06929 -1.06929 -1.08148 -1.08148 -1.09354 -1.09354 -1.10548 -1.10548 -1.11728 -1.11728 -1.12896 -1.12896 -1.14051 -1.14051 -1.15194 -1.15194 -1.16324 -1.16324 -1.17442 -1.17442 -1.18548 -1.18548 -1.19642 -1.19642 -1.20723 -1.20723 -1.21792 -1.21792 -1.2285 -1.2285 -1.23895 -1.23895 -1.24929 -1.24929 -1.25952 -1.25952 -1.26962 -1.26962 -1.27961 -1.27961 -1.28949 -1.28949 -1.29926 -1.29926 -1.30891 -1.30891 -1.31845 -1.31845 -1.32788 -1.32788 -1.3372 -1.3372 -1.34641 -1.34641 -1.35551 -1.35551 -1.3645 -1.3645 -1.37339 -1.37339 -1.38216 -1.38216 -1.39083 -1.39083 -1.39939 -1.39939 -1.40785 -1.40785 -1.4162 -1.4162 -1.42444 -1.42444 -1.43258 -1.43258 -1.44062 -1.44062 -1.44854 -1.44854 -1.45637 -1.45637 -1.46409 -1.46409 -1.47171 -1.47171 -1.47922 -1.47922 -1.48663 -1.48663 -1.49393 -1.49393 -1.50113 -1.50113 -1.50823 -1.50823 -1.51522 -1.51522 -1.52211 -1.52211 -1.5289 -1.5289 -1.53558 -1.53558 -1.54216 -1.54216 -1.54864 -1.54864 -1.55502 -1.55502 -1.56129 -1.56129 -1.56746 -1.56746 -1.57353 -1.57353 -1.57949 -1.57949 -1.58535 -1.58535 -1.59111 -1.59111 -1.59677 -1.59677 -1.60232 -1.60232 -1.60777 -1.60777 -1.61312 -1.61312 -1.61836 -1.61836 -1.62351 -1.62351 -1.62855 -1.62855 -1.63349 -1.63349 -1.63832 -1.63832 -1.64306 -1.64306 -1.64769 -1.64769 -1.65222 -1.65222 -1.65665 -1.65665 -1.66097 -1.66097 -1.6652 -1.6652 -1.66932 -1.66932 -1.67334 -1.67334 -1.67726 -1.67726 -1.68108 -1.68108 -1.6848 -1.6848 -1.68841 -1.68841 -1.69193 -1.69193 -1.69534 -1.69534 -1.69865 -1.69865 -1.70186 -1.70186 -1.70497 -1.70497 -1.70798 -1.70798 -1.71089 -1.71089 -1.7137 -1.7137 -1.71641 -1.71641 -1.71902 -1.71902 -1.72153 -1.72153 -1.72394 -1.72394 -1.72625 -1.72625 -1.72846 -1.72846 -1.73057 -1.73057 -1.73258 -1.73258 -1.73449 -1.73449 -1.73631 -1.73631 -1.73802 -1.73802 -1.73964 -1.73964 -1.74116 -1.74116 -1.74258 -1.74258 -1.7439 -1.7439 -1.74513 -1.74513 -1.74626 -1.74626 -1.74729 -1.74729 -1.74822 -1.74822 -1.74906 -1.74906 -1.7498 -1.7498 -1.75045 -1.75045 -1.751 -1.751 -1.75145 -1.75145 -1.75181 -1.75181 -1.75207 -1.75207 -1.75224 -1.75224 -1.75232 -1.75232 -1.7523 -1.7523 -1.75218 -1.75218 -1.75197 -1.75197 -1.75167 -1.75167 -1.75128 -1.75128 -1.75079 -1.75079 -1.75021 -1.75021 -1.74954 -1.74954 -1.74878 -1.74878 -1.74793 -1.74793 -1.74699 -1.74699 -1.74595 -1.74595 -1.74483 -1.74483 -1.74361 -1.74361 -1.74231 -1.74231 -1.74092 -1.74092 -1.73944 -1.73944 -1.73787 -1.73787 -1.73621 -1.73621 -1.73447 -1.73447 -1.73264 -1.73264 -1.73073 -1.73073 -1.72872 -1.72872 -1.72664 -1.72664 -1.72447 -1.72447 -1.72221 -1.72221 -1.71988 -1.71988 -1.71745 -1.71745 -1.71495 -1.71495 -1.71236 -1.71236 -1.7097 -1.7097 -1.70695 -1.70695 -1.70412 -1.70412 -1.70121 -1.70121 -1.69823 -1.69823 -1.69516 -1.69516 -1.69202 -1.69202 -1.6888 -1.6888 -1.68551 -1.68551 -1.68213 -1.68213 -1.67869 -1.67869 -1.67517 -1.67517 -1.67157 -1.67157 -1.66791 -1.66791 -1.66417 -1.66417 -1.66036 -1.66036 -1.65648 -1.65648 -1.65253 -1.65253 -1.64851 -1.64851 -1.64442 -1.64442 -1.64026 -1.64026 -1.63604 -1.63604 -1.63176 -1.63176 -1.6274 -1.6274 -1.62299 -1.62299 -1.61851 -1.61851 -1.61397 -1.61397 -1.60937 -1.60937 -1.60471 -1.60471 -1.59999 -1.59999 -1.59521 -1.59521 -1.59037 -1.59037 -1.58548 -1.58548 -1.58053 -1.58053 -1.57553 -1.57553 -1.57047 -1.57047 -1.56537 -1.56537 -1.56021 -1.56021 -1.555 -1.555 -1.54975 -1.54975 -1.54444 -1.54444 -1.5391 -1.5391 -1.5337 -1.5337 -1.52826 -1.52826 -1.52278 -1.52278 -1.51726 -1.51726 -1.5117 -1.5117 -1.5061 -1.5061 -1.50046 -1.50046 -1.49479 -1.49479 -1.48908 -1.48908 -1.48333 -1.48333 -1.47756 -1.47756 -1.47175 -1.47175 -1.46592 -1.46592 -1.46006 -1.46006 -1.45417 -1.45417 -1.44826 -1.44826 -1.44232 -1.44232 -1.43636 -1.43636 -1.43039 -1.43039 -1.42439 -1.42439 -1.41838 -1.41838 -1.41235 -1.41235 -1.4063 -1.4063 -1.40025 -1.40025 -1.39419 -1.39419 -1.38811 -1.38811 -1.38203 -1.38203 -1.37595 -1.37595 -1.36986 -1.36986 -1.36377 -1.36377 -1.35768 -1.35768 -1.3516 -1.3516 -1.34551 -1.34551 -1.33944 -1.33944 -1.33337 -1.33337 -1.32731 -1.32731 -1.32127 -1.32127 -1.31523 -1.31523 -1.30922 -1.30922 -1.30322 -1.30322 -1.29724 -1.29724 -1.29129 -1.29129 -1.28536 -1.28536 -1.27946 -1.27946 -1.27358 -1.27358 -1.26774 -1.26774 -1.26193 -1.26193 -1.25616 -1.25616 -1.25042 -1.25042 -1.24473 -1.24473 -1.23907 -1.23907 -1.23347 -1.23347 -1.22791 -1.22791 -1.2224 -1.2224 -1.21694 -1.21694 -1.21154 -1.21154 -1.2062 -1.2062 -1.20092 -1.20092 -1.1957 -1.1957 -1.19055 -1.19055 -1.18546 -1.18546 -1.18045 -1.18045 -1.17551 -1.17551 -1.17065 -1.17065 -1.16586 -1.16586 -1.16116 -1.16116 -1.15655 -1.15655 -1.15202 -1.15202 -1.14758 -1.14758 -1.14324 -1.14324 -1.13899 -1.13899 -1.13485 -1.13485 -1.1308 -1.1308 -1.12687 -1.12687 -1.12304 -1.12304 -1.11933 -1.11933 -1.11573 -1.11573 -1.11225 -1.11225 -1.10889 -1.10889 -1.10566 -1.10566 -1.10256 -1.10256 -1.09959 -1.09959 -1.09676 -1.09676 -1.09406 -1.09406 -1.09151 -1.09151 -1.08911 -1.08911 -1.08685 -1.08685 -1.08475 -1.08475 -1.08281 -1.08281 -1.08102 -1.08102 -1.0794 -1.0794 -1.07795 -1.07795 -1.07668 -1.07668 -1.07557 -1.07557 -1.07465 -1.07465 -1.07391 -1.07391 -1.07336 -1.07336 -1.073 -1.073 -1.07284 -1.07284 -1.07287 -1.07287 -1.07311 -1.07311 -1.07356 -1.07356 -1.07422 -1.07422 -1.0751 -1.0751 -1.07619 -1.07619 -1.07752 -1.07752 -1.07907 -1.07907 -1.08085 -1.08085 -1.08287 -1.08287 -1.08514 -1.08514 -1.08765 -1.08765 -1.09042 -1.09042 -1.09344 -1.09344 -1.09672 -1.09672 -1.10026 -1.10026 -1.10408 -1.10408 -1.10817 -1.10817 -1.11254 -1.11254 -1.1172 -1.1172 -1.12214 -1.12214 -1.12738 -1.12738 -1.13292 -1.13292 -1.13876 -1.13876 -1.14491 -1.14491 -1.15137 -1.15137 -1.15816 -1.15816 -1.16527 -1.16527 -1.17271 -1.17271 -1.18048 -1.18048 -1.18859 -1.18859 -1.19705 -1.19705 -1.20586 -1.20586 -1.21503 -1.21503 -1.22456 -1.22456 -1.23445 -1.23445 -1.24472 -1.24472 -1.25537 -1.25537 -1.2664 -1.2664 -1.27782 -1.27782 -1.28963 -1.28963 -1.30185 -1.30185 -1.31447 -1.31447 -1.32751 -1.32751 -1.34096 -1.34096 -1.35484 -1.35484 -1.36915 
SCALARS solution_1 double 1
LOOKUP_TABLE default