# vtk DataFile Version 3.0
#This file was generated by the deal.II library on 2020/9/1 at 15:08:02
ASCII
DATASET UNSTRUCTURED_GRID

POINTS 2048 double
1.5 0 0
1.59619 0 0
1.59619 0 0
1.69238 0 0
1.69238 0 0
1.78857 0 0
1.78857 0 0
1.88477 0 0
1.88477 0 0
1.98096 0 0
1.98096 0 0
2.07715 0 0
2.07715 0 0
2.17334 0 0
2.17334 0 0
2.26953 0 0
2.26953 0 0
2.36572 0 0
2.36572 0 0
2.46191 0 0
2.46191 0 0
2.55811 0 0
2.55811 0 0
2.6543 0 0
2.6543 0 0
2.75049 0 0
2.75049 0 0
2.84668 0 0
2.84668 0 0
2.94287 0 0
2.94287 0 0
3.03906 0 0
3.03906 0 0
3.13525 0 0
3.13525 0 0
3.23145 0 0
3.23145 0 0
3.32764 0 0
3.32764 0 0
3.42383 0 0
3.42383 0 0
3.52002 0 0
3.52002 0 0
3.61621 0 0
3.61621 0 0
3.7124 0 0
3.7124 0 0
3.80859 0 0
3.80859 0 0
3.90479 0 0
3.90479 0 0
4.00098 0 0
4.00098 0 0
4.09717 0 0
4.09717 0 0
4.19336 0 0
4.19336 0 0
4.28955 0 0
4.28955 0 0
4.38574 0 0
4.38574 0 0
4.48193 0 0
4.48193 0 0
4.57812 0 0
4.57812 0 0
4.67432 0 0
4.67432 0 0
4.77051 0 0
4.77051 0 0
4.8667 0 0
4.8667 0 0
4.96289 0 0
4.96289 0 0
5.05908 0 0
5.05908 0 0
5.15527 0 0
5.15527 0 0
5.25146 0 0
5.25146 0 0
5.34766 0 0
5.34766 0 0
5.44385 0 0
5.44385 0 0
5.54004 0 0
5.54004 0 0
5.63623 0 0
5.63623 0 0
5.73242 0 0
5.73242 0 0
5.82861 0 0
5.82861 0 0
5.9248 0 0
5.9248 0 0
6.021 0 0
6.021 0 0
6.11719 0 0
6.11719 0 0
6.21338 0 0
6.21338 0 0
6.30957 0 0
6.30957 0 0
6.40576 0 0
6.40576 0 0
6.50195 0 0
6.50195 0 0
6.59814 0 0
6.59814 0 0
6.69434 0 0
6.69434 0 0
6.79053 0 0
6.79053 0 0
6.88672 0 0
6.88672 0 0
6.98291 0 0
6.98291 0 0
7.0791 0 0
7.0791 0 0
7.17529 0 0
7.17529 0 0
7.27148 0 0
7.27148 0 0
7.36768 0 0
7.36768 0 0
7.46387 0 0
7.46387 0 0
7.56006 0 0
7.56006 0 0
7.65625 0 0
7.65625 0 0
7.75244 0 0
7.75244 0 0
7.84863 0 0
7.84863 0 0
7.94482 0 0
7.94482 0 0
8.04102 0 0
8.04102 0 0
8.13721 0 0
8.13721 0 0
8.2334 0 0
8.2334 0 0
8.32959 0 0
8.32959 0 0
8.42578 0 0
8.42578 0 0
8.52197 0 0
8.52197 0 0
8.61816 0 0
8.61816 0 0
8.71436 0 0
8.71436 0 0
8.81055 0 0
8.81055 0 0
8.90674 0 0
8.90674 0 0
9.00293 0 0
9.00293 0 0
9.09912 0 0
9.09912 0 0
9.19531 0 0
9.19531 0 0
9.2915 0 0
9.2915 0 0
9.3877 0 0
9.3877 0 0
9.48389 0 0
9.48389 0 0
9.58008 0 0
9.58008 0 0
9.67627 0 0
9.67627 0 0
9.77246 0 0
9.77246 0 0
9.86865 0 0
9.86865 0 0
9.96484 0 0
9.96484 0 0
10.061 0 0
10.061 0 0
10.1572 0 0
10.1572 0 0
10.2534 0 0
10.2534 0 0
10.3496 0 0
10.3496 0 0
10.4458 0 0
10.4458 0 0
10.542 0 0
10.542 0 0
10.6382 0 0
10.6382 0 0
10.7344 0 0
10.7344 0 0
10.8306 0 0
10.8306 0 0
10.9268 0 0
10.9268 0 0
11.0229 0 0
11.0229 0 0
11.1191 0 0
11.1191 0 0
11.2153 0 0
11.2153 0 0
11.3115 0 0
11.3115 0 0
11.4077 0 0
11.4077 0 0
11.5039 0 0
11.5039 0 0
11.6001 0 0
11.6001 0 0
11.6963 0 0
11.6963 0 0
11.7925 0 0
11.7925 0 0
11.8887 0 0
11.8887 0 0
11.9849 0 0
11.9849 0 0
12.0811 0 0
12.0811 0 0
12.1772 0 0
12.1772 0 0
12.2734 0 0
12.2734 0 0
12.3696 0 0
12.3696 0 0
12.4658 0 0
12.4658 0 0
12.562 0 0
12.562 0 0
12.6582 0 0
12.6582 0 0
12.7544 0 0
12.7544 0 0
12.8506 0 0
12.8506 0 0
12.9468 0 0
12.9468 0 0
13.043 0 0
13.043 0 0
13.1392 0 0
13.1392 0 0
13.2354 0 0
13.2354 0 0
13.3315 0 0
13.3315 0 0
13.4277 0 0
13.4277 0 0
13.5239 0 0
13.5239 0 0
13.6201 0 0
13.6201 0 0
13.7163 0 0
13.7163 0 0
13.8125 0 0
13.8125 0 0
13.9087 0 0
13.9087 0 0
14.0049 0 0
14.0049 0 0
14.1011 0 0
14.1011 0 0
14.1973 0 0
14.1973 0 0
14.2935 0 0
14.2935 0 0
14.3896 0 0
14.3896 0 0
14.4858 0 0
14.4858 0 0
14.582 0 0
14.582 0 0
14.6782 0 0
14.6782 0 0
14.7744 0 0
14.7744 0 0
14.8706 0 0
14.8706 0 0
14.9668 0 0
14.9668 0 0
15.063 0 0
15.063 0 0
15.1592 0 0
15.1592 0 0
15.2554 0 0
15.2554 0 0
15.3516 0 0
15.3516 0 0
15.4478 0 0
15.4478 0 0
15.5439 0 0
15.5439 0 0
15.6401 0 0
15.6401 0 0
15.7363 0 0
15.7363 0 0
15.8325 0 0
15.8325 0 0
15.9287 0 0
15.9287 0 0
16.0249 0 0
16.0249 0 0
16.1211 0 0
16.1211 0 0
16.2173 0 0
16.2173 0 0
16.3135 0 0
16.3135 0 0
16.4097 0 0
16.4097 0 0
16.5059 0 0
16.5059 0 0
16.6021 0 0
16.6021 0 0
16.6982 0 0
16.6982 0 0
16.7944 0 0
16.7944 0 0
16.8906 0 0
16.8906 0 0
16.9868 0 0
16.9868 0 0
17.083 0 0
17.083 0 0
17.1792 0 0
17.1792 0 0
17.2754 0 0
17.2754 0 0
17.3716 0 0
17.3716 0 0
17.4678 0 0
17.4678 0 0
17.564 0 0
17.564 0 0
17.6602 0 0
17.6602 0 0
17.7563 0 0
17.7563 0 0
17.8525 0 0
17.8525 0 0
17.9487 0 0
17.9487 0 0
18.0449 0 0
18.0449 0 0
18.1411 0 0
18.1411 0 0
18.2373 0 0
18.2373 0 0
18.3335 0 0
18.3335 0 0
18.4297 0 0
18.4297 0 0
18.5259 0 0
18.5259 0 0
18.6221 0 0
18.6221 0 0
18.7183 0 0
18.7183 0 0
18.8145 0 0
18.8145 0 0
18.9106 0 0
18.9106 0 0
19.0068 0 0
19.0068 0 0
19.103 0 0
19.103 0 0
19.1992 0 0
19.1992 0 0
19.2954 0 0
19.2954 0 0
19.3916 0 0
19.3916 0 0
19.4878 0 0
19.4878 0 0
19.584 0 0
19.584 0 0
19.6802 0 0
19.6802 0 0
19.7764 0 0
19.7764 0 0
19.8726 0 0
19.8726 0 0
19.9688 0 0
19.9688 0 0
20.0649 0 0
20.0649 0 0
20.1611 0 0
20.1611 0 0
20.2573 0 0
20.2573 0 0
20.3535 0 0
20.3535 0 0
20.4497 0 0
20.4497 0 0
20.5459 0 0
20.5459 0 0
20.6421 0 0
20.6421 0 0
20.7383 0 0
20.7383 0 0
20.8345 0 0
20.8345 0 0
20.9307 0 0
20.9307 0 0
21.0269 0 0
21.0269 0 0
21.123 0 0
21.123 0 0
21.2192 0 0
21.2192 0 0
21.3154 0 0
21.3154 0 0
21.4116 0 0
21.4116 0 0
21.5078 0 0
21.5078 0 0
21.604 0 0
21.604 0 0
21.7002 0 0
21.7002 0 0
21.7964 0 0
21.7964 0 0
21.8926 0 0
21.8926 0 0
21.9888 0 0
21.9888 0 0
22.085 0 0
22.085 0 0
22.1812 0 0
22.1812 0 0
22.2773 0 0
22.2773 0 0
22.3735 0 0
22.3735 0 0
22.4697 0 0
22.4697 0 0
22.5659 0 0
22.5659 0 0
22.6621 0 0
22.6621 0 0
22.7583 0 0
22.7583 0 0
22.8545 0 0
22.8545 0 0
22.9507 0 0
22.9507 0 0
23.0469 0 0
23.0469 0 0
23.1431 0 0
23.1431 0 0
23.2393 0 0
23.2393 0 0
23.3354 0 0
23.3354 0 0
23.4316 0 0
23.4316 0 0
23.5278 0 0
23.5278 0 0
23.624 0 0
23.624 0 0
23.7202 0 0
23.7202 0 0
23.8164 0 0
23.8164 0 0
23.9126 0 0
23.9126 0 0
24.0088 0 0
24.0088 0 0
24.105 0 0
24.105 0 0
24.2012 0 0
24.2012 0 0
24.2974 0 0
24.2974 0 0
24.3936 0 0
24.3936 0 0
24.4897 0 0
24.4897 0 0
24.5859 0 0
24.5859 0 0
24.6821 0 0
24.6821 0 0
24.7783 0 0
24.7783 0 0
24.8745 0 0
24.8745 0 0
24.9707 0 0
24.9707 0 0
25.0669 0 0
25.0669 0 0
25.1631 0 0
25.1631 0 0
25.2593 0 0
25.2593 0 0
25.3555 0 0
25.3555 0 0
25.4517 0 0
25.4517 0 0
25.5479 0 0
25.5479 0 0
25.644 0 0
25.644 0 0
25.7402 0 0
25.7402 0 0
25.8364 0 0
25.8364 0 0
25.9326 0 0
25.9326 0 0
26.0288 0 0
26.0288 0 0
26.125 0 0
26.125 0 0
26.2212 0 0
26.2212 0 0
26.3174 0 0
26.3174 0 0
26.4136 0 0
26.4136 0 0
26.5098 0 0
26.5098 0 0
26.606 0 0
26.606 0 0
26.7021 0 0
26.7021 0 0
26.7983 0 0
26.7983 0 0
26.8945 0 0
26.8945 0 0
26.9907 0 0
26.9907 0 0
27.0869 0 0
27.0869 0 0
27.1831 0 0
27.1831 0 0
27.2793 0 0
27.2793 0 0
27.3755 0 0
27.3755 0 0
27.4717 0 0
27.4717 0 0
27.5679 0 0
27.5679 0 0
27.6641 0 0
27.6641 0 0
27.7603 0 0
27.7603 0 0
27.8564 0 0
27.8564 0 0
27.9526 0 0
27.9526 0 0
28.0488 0 0
28.0488 0 0
28.145 0 0
28.145 0 0
28.2412 0 0
28.2412 0 0
28.3374 0 0
28.3374 0 0
28.4336 0 0
28.4336 0 0
28.5298 0 0
28.5298 0 0
28.626 0 0
28.626 0 0
28.7222 0 0
28.7222 0 0
28.8184 0 0
28.8184 0 0
28.9146 0 0
28.9146 0 0
29.0107 0 0
29.0107 0 0
29.1069 0 0
29.1069 0 0
29.2031 0 0
29.2031 0 0
29.2993 0 0
29.2993 0 0
29.3955 0 0
29.3955 0 0
29.4917 0 0
29.4917 0 0
29.5879 0 0
29.5879 0 0
29.6841 0 0
29.6841 0 0
29.7803 0 0
29.7803 0 0
29.8765 0 0
29.8765 0 0
29.9727 0 0
29.9727 0 0
30.0688 0 0
30.0688 0 0
30.165 0 0
30.165 0 0
30.2612 0 0
30.2612 0 0
30.3574 0 0
30.3574 0 0
30.4536 0 0
30.4536 0 0
30.5498 0 0
30.5498 0 0
30.646 0 0
30.646 0 0
30.7422 0 0
30.7422 0 0
30.8384 0 0
30.8384 0 0
30.9346 0 0
30.9346 0 0
31.0308 0 0
31.0308 0 0
31.127 0 0
31.127 0 0
31.2231 0 0
31.2231 0 0
31.3193 0 0
31.3193 0 0
31.4155 0 0
31.4155 0 0
31.5117 0 0
31.5117 0 0
31.6079 0 0
31.6079 0 0
31.7041 0 0
31.7041 0 0
31.8003 0 0
31.8003 0 0
31.8965 0 0
31.8965 0 0
31.9927 0 0
31.9927 0 0
32.0889 0 0
32.0889 0 0
32.1851 0 0
32.1851 0 0
32.2812 0 0
32.2812 0 0
32.3774 0 0
32.3774 0 0
32.4736 0 0
32.4736 0 0
32.5698 0 0
32.5698 0 0
32.666 0 0
32.666 0 0
32.7622 0 0
32.7622 0 0
32.8584 0 0
32.8584 0 0
32.9546 0 0
32.9546 0 0
33.0508 0 0
33.0508 0 0
33.147 0 0
33.147 0 0
33.2432 0 0
33.2432 0 0
33.3394 0 0
33.3394 0 0
33.4355 0 0
33.4355 0 0
33.5317 0 0
33.5317 0 0
33.6279 0 0
33.6279 0 0
33.7241 0 0
33.7241 0 0
33.8203 0 0
33.8203 0 0
33.9165 0 0
33.9165 0 0
34.0127 0 0
34.0127 0 0
34.1089 0 0
34.1089 0 0
34.2051 0 0
34.2051 0 0
34.3013 0 0
34.3013 0 0
34.3975 0 0
34.3975 0 0
34.4937 0 0
34.4937 0 0
34.5898 0 0
34.5898 0 0
34.686 0 0
34.686 0 0
34.7822 0 0
34.7822 0 0
34.8784 0 0
34.8784 0 0
34.9746 0 0
34.9746 0 0
35.0708 0 0
35.0708 0 0
35.167 0 0
35.167 0 0
35.2632 0 0
35.2632 0 0
35.3594 0 0
35.3594 0 0
35.4556 0 0
35.4556 0 0
35.5518 0 0
35.5518 0 0
35.6479 0 0
35.6479 0 0
35.7441 0 0
35.7441 0 0
35.8403 0 0
35.8403 0 0
35.9365 0 0
35.9365 0 0
36.0327 0 0
36.0327 0 0
36.1289 0 0
36.1289 0 0
36.2251 0 0
36.2251 0 0
36.3213 0 0
36.3213 0 0
36.4175 0 0
36.4175 0 0
36.5137 0 0
36.5137 0 0
36.6099 0 0
36.6099 0 0
36.7061 0 0
36.7061 0 0
36.8022 0 0
36.8022 0 0
36.8984 0 0
36.8984 0 0
36.9946 0 0
36.9946 0 0
37.0908 0 0
37.0908 0 0
37.187 0 0
37.187 0 0
37.2832 0 0
37.2832 0 0
37.3794 0 0
37.3794 0 0
37.4756 0 0
37.4756 0 0
37.5718 0 0
37.5718 0 0
37.668 0 0
37.668 0 0
37.7642 0 0
37.7642 0 0
37.8604 0 0
37.8604 0 0
37.9565 0 0
37.9565 0 0
38.0527 0 0
38.0527 0 0
38.1489 0 0
38.1489 0 0
38.2451 0 0
38.2451 0 0
38.3413 0 0
38.3413 0 0
38.4375 0 0
38.4375 0 0
38.5337 0 0
38.5337 0 0
38.6299 0 0
38.6299 0 0
38.7261 0 0
38.7261 0 0
38.8223 0 0
38.8223 0 0
38.9185 0 0
38.9185 0 0
39.0146 0 0
39.0146 0 0
39.1108 0 0
39.1108 0 0
39.207 0 0
39.207 0 0
39.3032 0 0
39.3032 0 0
39.3994 0 0
39.3994 0 0
39.4956 0 0
39.4956 0 0
39.5918 0 0
39.5918 0 0
39.688 0 0
39.688 0 0
39.7842 0 0
39.7842 0 0
39.8804 0 0
39.8804 0 0
39.9766 0 0
39.9766 0 0
40.0728 0 0
40.0728 0 0
40.1689 0 0
40.1689 0 0
40.2651 0 0
40.2651 0 0
40.3613 0 0
40.3613 0 0
40.4575 0 0
40.4575 0 0
40.5537 0 0
40.5537 0 0
40.6499 0 0
40.6499 0 0
40.7461 0 0
40.7461 0 0
40.8423 0 0
40.8423 0 0
40.9385 0 0
40.9385 0 0
41.0347 0 0
41.0347 0 0
41.1309 0 0
41.1309 0 0
41.2271 0 0
41.2271 0 0
[...]
POINT_DATA 2048
SCALARS solution_0 double 1
LOOKUP_TABLE default
1.3548e+11 1.35473e+11 1.35473e+11 1.35926e+11 1.35926e+11 1.36731e+11 1.36731e+11 1.37807e+11 1.37807e+11 1.39091e+11 1.39091e+11 1.40531e+11 1.40531e+11 1.42088e+11 1.42088e+11 1.43731e+11 1.43731e+11 1.45435e+11 1.45435e+11 1.47181e+11 1.47181e+11 1.48951e+11 1.48951e+11 1.50734e+11 1.50734e+11 1.52518e+11 1.52518e+11 1.54297e+11 1.54297e+11 1.56062e+11 1.56062e+11 1.57809e+11 1.57809e+11 1.59532e+11 1.59532e+11 1.6123e+11 1.6123e+11 1.62898e+11 1.62898e+11 1.64534e+11 1.64534e+11 1.66138e+11 1.66138e+11 1.67706e+11 1.67706e+11 1.69239e+11 1.69239e+11 1.70736e+11 1.70736e+11 1.72196e+11 1.72196e+11 1.73618e+11 1.73618e+11 1.75003e+11 1.75003e+11 1.76351e+11 1.76351e+11 1.77661e+11 1.77661e+11 1.78933e+11 1.78933e+11 1.80169e+11 1.80169e+11 1.81367e+11 1.81367e+11 1.82529e+11 1.82529e+11 1.83655e+11 1.83655e+11 1.84745e+11 1.84745e+11 1.858e+11 1.858e+11 1.86819e+11 1.86819e+11 1.87804e+11 1.87804e+11 1.88756e+11 1.88756e+11 1.89673e+11 1.89673e+11 1.90558e+11 1.90558e+11 1.9141e+11 1.9141e+11 1.92229e+11 1.92229e+11 1.93018e+11 1.93018e+11 1.93775e+11 1.93775e+11 1.94502e+11 1.94502e+11 1.95199e+11 1.95199e+11 1.95866e+11 1.95866e+11 1.96504e+11 1.96504e+11 1.97113e+11 1.97113e+11 1.97694e+11 1.97694e+11 1.98248e+11 1.98248e+11 1.98774e+11 1.98774e+11 1.99273e+11 1.99273e+11 1.99747e+11 1.99747e+11 2.00194e+11 2.00194e+11 2.00616e+11 2.00616e+11 2.01013e+11 2.01013e+11 2.01385e+11 2.01385e+11 2.01734e+11 2.01734e+11 2.02058e+11 2.02058e+11 2.02359e+11 2.02359e+11 2.02638e+11 2.02638e+11 2.02893e+11 2.02893e+11 2.03127e+11 2.03127e+11 2.03339e+11 2.03339e+11 2.03529e+11 2.03529e+11 2.03698e+11 2.03698e+11 2.03847e+11 2.03847e+11 2.03976e+11 2.03976e+11 2.04084e+11 2.04084e+11 2.04173e+11 2.04173e+11 2.04242e+11 2.04242e+11 2.04293e+11 2.04293e+11 2.04325e+11 2.04325e+11 2.04339e+11 2.04339e+11 2.04334e+11 2.04334e+11 2.04312e+11 2.04312e+11 2.04273e+11 2.04273e+11 2.04217e+11 2.04217e+11 2.04144e+11 2.04144e+11 2.04054e+11 2.04054e+11 2.03949e+11 2.03949e+11 2.03827e+11 2.03827e+11 2.0369e+11 2.0369e+11 2.03537e+11 2.03537e+11 2.0337e+11 2.0337e+11 2.03188e+11 2.03188e+11 2.02991e+11 2.02991e+11 2.0278e+11 2.0278e+11 2.02555e+11 2.02555e+11 2.02316e+11 2.02316e+11 2.02063e+11 2.02063e+11 2.01798e+11 2.01798e+11 2.01519e+11 2.01519e+11 2.01228e+11 2.01228e+11 2.00924e+11 2.00924e+11 2.00608e+11 2.00608e+11 2.0028e+11 2.0028e+11 1.9994e+11 1.9994e+11 1.99588e+11 1.99588e+11 1.99225e+11 1.99225e+11 1.98851e+11 1.98851e+11 1.98465e+11 1.98465e+11 1.98069e+11 1.98069e+11 1.97663e+11 1.97663e+11 1.97246e+11 1.97246e+11 1.96819e+11 1.96819e+11 1.96382e+11 1.96382e+11 1.95935e+11 1.95935e+11 1.95479e+11 1.95479e+11 1.95013e+11 1.95013e+11 1.94538e+11 1.94538e+11 1.94055e+11 1.94055e+11 1.93562e+11 1.93562e+11 1.93061e+11 1.93061e+11 1.92551e+11 1.92551e+11 1.92033e+11 1.92033e+11 1.91507e+11 1.91507e+11 1.90973e+11 1.90973e+11 1.90431e+11 1.90431e+11 1.89882e+11 1.89882e+11 1.89325e+11 1.89325e+11 1.88761e+11 1.88761e+11 1.8819e+11 1.8819e+11 1.87612e+11 1.87612e+11 1.87028e+11 1.87028e+11 1.86436e+11 1.86436e+11 1.85838e+11 1.85838e+11 1.85234e+11 1.85234e+11 1.84624e+11 1.84624e+11 1.84007e+11 1.84007e+11 1.83385e+11 1.83385e+11 1.82757e+11 1.82757e+11 1.82124e+11 1.82124e+11 1.81485e+11 1.81485e+11 1.8084e+11 1.8084e+11 1.80191e+11 1.80191e+11 1.79536e+11 1.79536e+11 1.78877e+11 1.78877e+11 1.78212e+11 1.78212e+11 1.77543e+11 1.77543e+11 1.7687e+11 1.7687e+11 1.76192e+11 1.76192e+11 1.7551e+11 1.7551e+11 1.74824e+11 1.74824e+11 1.74133e+11 1.74133e+11 1.73439e+11 1.73439e+11 1.72741e+11 1.72741e+11 1.7204e+11 1.7204e+11 1.71334e+11 1.71334e+11 1.70625e+11 1.70625e+11 1.69913e+11 1.69913e+11 1.69198e+11 1.69198e+11 1.6848e+11 1.6848e+11 1.67758e+11 1.67758e+11 1.67034e+11 1.67034e+11 1.66307e+11 1.66307e+11 1.65577e+11 1.65577e+11 1.64844e+11 1.64844e+11 1.64109e+11 1.64109e+11 1.63372e+11 1.63372e+11 1.62632e+11 1.62632e+11 1.6189e+11 1.6189e+11 1.61146e+11 1.61146e+11 1.604e+11 1.604e+11 1.59652e+11 1.59652e+11 1.58902e+11 1.58902e+11 1.58151e+11 1.58151e+11 1.57398e+11 1.57398e+11 1.56643e+11 1.56643e+11 1.55886e+11 1.55886e+11 1.55129e+11 1.55129e+11 1.5437e+11 1.5437e+11 1.53609e+11 1.53609e+11 1.52848e+11 1.52848e+11 1.52085e+11 1.52085e+11 1.51322e+11 1.51322e+11 1.50557e+11 1.50557e+11 1.49792e+11 1.49792e+11 1.49026e+11 1.49026e+11 1.48259e+11 1.48259e+11 1.47492e+11 1.47492e+11 1.46724e+11 1.46724e+11 1.45955e+11 1.45955e+11 1.45186e+11 1.45186e+11 1.44417e+11 1.44417e+11 1.43648e+11 1.43648e+11 1.42878e+11 1.42878e+11 1.42108e+11 1.42108e+11 1.41338e+11 1.41338e+11 1.40568e+11 1.40568e+11 1.39798e+11 1.39798e+11 1.39028e+11 1.39028e+11 1.38259e+11 1.38259e+11 1.37489e+11 1.37489e+11 1.3672e+11 1.3672e+11 1.35951e+11 1.35951e+11 1.35183e+11 1.35183e+11 1.34415e+11 1.34415e+11 1.33647e+11 1.33647e+11 1.3288e+11 1.3288e+11 1.32114e+11 1.32114e+11 1.31349e+11 1.31349e+11 1.30584e+11 1.30584e+11 1.2982e+11 1.2982e+11 1.29056e+11 1.29056e+11 1.28294e+11 1.28294e+11 1.27532e+11 1.27532e+11 1.26772e+11 1.26772e+11 1.26012e+11 1.26012e+11 1.25254e+11 1.25254e+11 1.24497e+11 1.24497e+11 1.2374e+11 1.2374e+11 1.22985e+11 1.22985e+11 1.22231e+11 1.22231e+11 1.21479e+11 1.21479e+11 1.20728e+11 1.20728e+11 1.19978e+11 1.19978e+11 1.19229e+11 1.19229e+11 1.18482e+11 1.18482e+11 1.17737e+11 1.17737e+11 1.16993e+11 1.16993e+11 1.1625e+11 1.1625e+11 1.15509e+11 1.15509e+11 1.1477e+11 1.1477e+11 1.14032e+11 1.14032e+11 1.13296e+11 1.13296e+11 1.12562e+11 1.12562e+11 1.1183e+11 1.1183e+11 1.11099e+11 1.11099e+11 1.1037e+11 1.1037e+11 1.09643e+11 1.09643e+11 1.08918e+11 1.08918e+11 1.08194e+11 1.08194e+11 1.07473e+11 1.07473e+11 1.06754e+11 1.06754e+11 1.06036e+11 1.06036e+11 1.05321e+11 1.05321e+11 1.04607e+11 1.04607e+11 1.03896e+11 1.03896e+11 1.03187e+11 1.03187e+11 1.0248e+11 1.0248e+11 1.01775e+11 1.01775e+11 1.01072e+11 1.01072e+11 1.00371e+11 1.00371e+11 9.96729e+10 9.96729e+10 9.89767e+10 9.89767e+10 9.82827e+10 9.82827e+10 9.7591e+10 9.7591e+10 9.69016e+10 9.69016e+10 9.62145e+10 9.62145e+10 9.55297e+10 9.55297e+10 9.48473e+10 9.48473e+10 9.41673e+10 9.41673e+10 9.34896e+10 9.34896e+10 9.28143e+10 9.28143e+10 9.21414e+10 9.21414e+10 9.1471e+10 9.1471e+10 9.0803e+10 9.0803e+10 9.01375e+10 9.01375e+10 8.94744e+10 8.94744e+10 8.88138e+10 8.88138e+10 8.81558e+10 8.81558e+10 8.75002e+10 8.75002e+10 8.68472e+10 8.68472e+10 8.61968e+10 8.61968e+10 8.55488e+10 8.55488e+10 8.49035e+10 8.49035e+10 8.42607e+10 8.42607e+10 8.36205e+10 8.36205e+10 8.29829e+10 8.29829e+10 8.2348e+10 8.2348e+10 8.17156e+10 8.17156e+10 8.10858e+10 8.10858e+10 8.04588e+10 8.04588e+10 7.98343e+10 7.98343e+10 7.92125e+10 7.92125e+10 7.85934e+10 7.85934e+10 7.79769e+10 7.79769e+10 7.73631e+10 7.73631e+10 7.6752e+10 7.6752e+10 7.61435e+10 7.61435e+10 7.55378e+10 7.55378e+10 7.49348e+10 7.49348e+10 7.43344e+10 7.43344e+10 7.37368e+10 7.37368e+10 7.31419e+10 7.31419e+10 7.25497e+10 7.25497e+10 7.19603e+10 7.19603e+10 7.13735e+10 7.13735e+10 7.07895e+10 7.07895e+10 7.02083e+10 7.02083e+10 6.96297e+10 6.96297e+10 6.90539e+10 6.90539e+10 6.84809e+10 6.84809e+10 6.79106e+10 6.79106e+10 6.7343e+10 6.7343e+10 6.67782e+10 6.67782e+10 6.62161e+10 6.62161e+10 6.56568e+10 6.56568e+10 6.51002e+10 6.51002e+10 6.45464e+10 6.45464e+10 6.39953e+10 6.39953e+10 6.3447e+10 6.3447e+10 6.29014e+10 6.29014e+10 6.23586e+10 6.23586e+10 6.18185e+10 6.18185e+10 6.12812e+10 6.12812e+10 6.07466e+10 6.07466e+10 6.02148e+10 6.02148e+10 5.96857e+10 5.96857e+10 5.91594e+10 5.91594e+10 5.86357e+10 5.86357e+10 5.81149e+10 5.81149e+10 5.75967e+10 5.75967e+10 5.70813e+10 5.70813e+10 5.65686e+10 5.65686e+10 5.60587e+10 5.60587e+10 5.55514e+10 5.55514e+10 5.50469e+10 5.50469e+10 5.45451e+10 5.45451e+10 5.4046e+10 5.4046e+10 5.35496e+10 5.35496e+10 5.30559e+10 5.30559e+10 5.25649e+10 5.25649e+10 5.20767e+10 5.20767e+10 5.1591e+10 5.1591e+10 5.11081e+10 5.11081e+10 5.06279e+10 5.06279e+10 5.01503e+10 5.01503e+10 4.96754e+10 4.96754e+10 4.92031e+10 4.92031e+10 4.87336e+10 4.87336e+10 4.82666e+10 4.82666e+10 4.78023e+10 4.78023e+10 4.73407e+10 4.73407e+10 4.68816e+10 4.68816e+10 4.64253e+10 4.64253e+10 4.59715e+10 4.59715e+10 4.55203e+10 4.55203e+10 4.50717e+10 4.50717e+10 4.46258e+10 4.46258e+10 4.41824e+10 4.41824e+10 4.37416e+10 4.37416e+10 4.33034e+10 4.33034e+10 4.28678e+10 4.28678e+10 4.24347e+10 4.24347e+10 4.20042e+10 4.20042e+10 4.15762e+10 4.15762e+10 4.11508e+10 4.11508e+10 4.07279e+10 4.07279e+10 4.03075e+10 4.03075e+10 3.98896e+10 3.98896e+10 3.94742e+10 3.94742e+10 3.90614e+10 3.90614e+10 3.8651e+10 3.8651e+10 3.82431e+10 3.82431e+10 3.78377e+10 3.78377e+10 3.74348e+10 3.74348e+10 3.70343e+10 3.70343e+10 3.66362e+10 3.66362e+10 3.62406e+10 3.62406e+10 3.58474e+10 3.58474e+10 3.54567e+10 3.54567e+10 3.50683e+10 3.50683e+10 3.46824e+10 3.46824e+10 3.42988e+10 3.42988e+10 3.39176e+10 3.39176e+10 3.35388e+10 3.35388e+10 3.31624e+10 3.31624e+10 3.27883e+10 3.27883e+10 3.24166e+10 3.24166e+10 3.20472e+10 3.20472e+10 3.16801e+10 3.16801e+10 3.13154e+10 3.13154e+10 3.09529e+10 3.09529e+10 3.05928e+10 3.05928e+10 3.02349e+10 3.02349e+10 2.98793e+10 2.98793e+10 2.9526e+10 2.9526e+10 2.9175e+10 2.9175e+10 2.88262e+10 2.88262e+10 2.84796e+10 2.84796e+10 2.81352e+10 2.81352e+10 2.77931e+10 2.77931e+10 2.74532e+10 2.74532e+10 2.71155e+10 2.71155e+10 2.67799e+10 2.67799e+10 2.64466e+10 2.64466e+10 2.61154e+10 2.61154e+10 2.57864e+10 2.57864e+10 2.54595e+10 2.54595e+10 2.51347e+10 2.51347e+10 2.48121e+10 2.48121e+10 2.44916e+10 2.44916e+10 2.41732e+10 2.41732e+10 2.38569e+10 2.38569e+10 2.35426e+10 2.35426e+10 2.32305e+10 2.32305e+10 2.29204e+10 2.29204e+10 2.26124e+10 2.26124e+10 2.23064e+10 2.23064e+10 2.20024e+10 2.20024e+10 2.17005e+10 2.17005e+10 2.14005e+10 2.14005e+10 2.11026e+10 2.11026e+10 2.08067e+10 2.08067e+10 2.05127e+10 2.05127e+10 2.02207e+10 2.02207e+10 1.99307e+10 1.99307e+10 1.96426e+10 1.96426e+10 1.93564e+10 1.93564e+10 1.90722e+10 1.90722e+10 1.87899e+10 1.87899e+10 1.85095e+10 1.85095e+10 1.8231e+10 1.8231e+10 1.79544e+10 1.79544e+10 1.76797e+10 1.76797e+10 1.74068e+10 1.74068e+10 1.71358e+10 1.71358e+10 1.68666e+10 1.68666e+10 1.65992e+10 1.65992e+10 1.63337e+10 1.63337e+10 1.607e+10 1.607e+10 1.58081e+10 1.58081e+10 1.5548e+10 1.5548e+10 1.52896e+10 1.52896e+10 1.5033e+10 1.5033e+10 1.47782e+10 1.47782e+10 1.45252e+10 1.45252e+10 1.42739e+10 1.42739e+10 1.40243e+10 1.40243e+10 1.37764e+10 1.37764e+10 1.35302e+10 1.35302e+10 1.32858e+10 1.32858e+10 1.3043e+10 1.3043e+10 1.28019e+10 1.28019e+10 1.25624e+10 1.25624e+10 1.23247e+10 1.23247e+10 1.20885e+10 1.20885e+10 1.18541e+10 1.18541e+10 1.16212e+10 1.16212e+10 1.13899e+10 1.13899e+10 1.11603e+10 1.11603e+10 1.09323e+10 1.09323e+10 1.07058e+10 1.07058e+10 1.04809e+10 1.04809e+10 1.02576e+10 1.02576e+10 1.00359e+10 1.00359e+10 9.81566e+09 9.81566e+09 9.59699e+09 9.59699e+09 9.37985e+09 9.37985e+09 9.16422e+09 9.16422e+09 8.95011e+09 8.95011e+09 8.73749e+09 8.73749e+09 8.52636e+09 8.52636e+09 8.31672e+09 8.31672e+09 8.10854e+09 8.10854e+09 7.90182e+09 7.90182e+09 7.69655e+09 7.69655e+09 7.49272e+09 7.49272e+09 7.29032e+09 7.29032e+09 7.08935e+09 7.08935e+09 6.88979e+09 6.88979e+09 6.69163e+09 6.69163e+09 6.49486e+09 6.49486e+09 6.29948e+09 6.29948e+09 6.10547e+09 6.10547e+09 5.91283e+09 5.91283e+09 5.72155e+09 5.72155e+09 5.53161e+09 5.53161e+09 5.34301e+09 5.34301e+09 5.15574e+09 5.15574e+09 4.96979e+09 4.96979e+09 4.78515e+09 4.78515e+09 4.60182e+09 4.60182e+09 4.41977e+09 4.41977e+09 4.23901e+09 4.23901e+09 4.05953e+09 4.05953e+09 3.88131e+09 3.88131e+09 3.70435e+09 3.70435e+09 3.52864e+09 3.52864e+09 3.35417e+09 3.35417e+09 3.18093e+09 3.18093e+09 3.00892e+09 3.00892e+09 2.83812e+09 2.83812e+09 2.66852e+09 2.66852e+09 2.50012e+09 2.50012e+09 2.33291e+09 2.33291e+09 2.16688e+09 2.16688e+09 2.00202e+09 2.00202e+09 1.83833e+09 1.83833e+09 1.67579e+09 1.67579e+09 1.5144e+09 1.5144e+09 1.35414e+09 1.35414e+09 1.19502e+09 1.19502e+09 1.03702e+09 1.03702e+09 8.80133e+08 8.80133e+08 7.24353e+08 7.24353e+08 5.69671e+08 5.69671e+08 4.1608e+08 4.1608e+08 2.6357e+08 2.6357e+08 1.12136e+08 1.12136e+08 -3.82327e+07 -3.82327e+07 -1.87542e+08 -1.87542e+08 -3.35801e+08 -3.35801e+08 -4.83016e+08 -4.83016e+08 -6.29195e+08 -6.29195e+08 -7.74347e+08 -7.74347e+08 -9.18478e+08 -9.18478e+08 -1.0616e+09 -1.0616e+09 -1.20371e+09 -1.20371e+09 -1.34482e+09 -1.34482e+09 -1.48495e+09 -1.48495e+09 -1.62409e+09 -1.62409e+09 -1.76226e+09 -1.76226e+09 -1.89945e+09 -1.89945e+09 -2.03569e+09 -2.03569e+09 -2.17097e+09 -2.17097e+09 -2.30531e+09 -2.30531e+09 -2.4387e+09 -2.4387e+09 -2.57117e+09 -2.57117e+09 -2.7027e+09 -2.7027e+09 -2.83332e+09 -2.83332e+09 -2.96303e+09 -2.96303e+09 -3.09183e+09 -3.09183e+09 -3.21974e+09 -3.21974e+09 -3.34675e+09 -3.34675e+09 -3.47288e+09 -3.47288e+09 -3.59813e+09 -3.59813e+09 -3.72251e+09 -3.72251e+09 -3.84603e+09 -3.84603e+09 -3.96868e+09 -3.96868e+09 -4.09049e+09 -4.09049e+09 -4.21145e+09 -4.21145e+09 -4.33158e+09 -4.33158e+09 -4.45087e+09 -4.45087e+09 -4.56934e+09 -4.56934e+09 -4.68699e+09 -4.68699e+09 -4.80382e+09 -4.80382e+09 -4.91985e+09 -4.91985e+09 -5.03508e+09 -5.03508e+09 -5.14952e+09 -5.14952e+09 -5.26316e+09 -5.26316e+09 -5.37603e+09 -5.37603e+09 -5.48812e+09 -5.48812e+09 -5.59944e+09 -5.59944e+09 -5.71e+09 -5.71e+09 -5.81979e+09 -5.81979e+09 -5.92884e+09 -5.92884e+09 -6.03714e+09 -6.03714e+09 -6.1447e+09 -6.1447e+09 -6.25152e+09 -6.25152e+09 -6.35762e+09 -6.35762e+09 -6.46299e+09 -6.46299e+09 -6.56765e+09 -6.56765e+09 -6.67159e+09 -6.67159e+09 -6.77483e+09 -6.77483e+09 -6.87737e+09 -6.87737e+09 -6.97921e+09 -6.97921e+09 -7.08036e+09 -7.08036e+09 -7.18082e+09 -7.18082e+09 -7.28061e+09 -7.28061e+09 -7.37972e+09 -7.37972e+09 -7.47816e+09 -7.47816e+09 -7.57594e+09 -7.57594e+09 -7.67307e+09 -7.67307e+09 -7.76953e+09 -7.76953e+09 -7.86535e+09 -7.86535e+09 -7.96053e+09 -7.96053e+09 -8.05507e+09 -8.05507e+09 -8.14898e+09 -8.14898e+09 -8.24225e+09 -8.24225e+09 -8.33491e+09 -8.33491e+09 -8.42694e+09 -8.42694e+09 -8.51837e+09 -8.51837e+09 -8.60918e+09 -8.60918e+09 -8.69939e+09 -8.69939e+09 -8.789e+09 -8.789e+09 -8.87801e+09 -8.87801e+09 -8.96644e+09 -8.96644e+09 -9.05428e+09 -9.05428e+09 -9.14154e+09 -9.14154e+09 -9.22822e+09 -9.22822e+09 -9.31433e+09 -9.31433e+09 -9.39987e+09 -9.39987e+09 -9.48485e+09 -9.48485e+09 -9.56927e+09 -9.56927e+09 -9.65314e+09 -9.65314e+09 -9.73646e+09 -9.73646e+09 -9.81923e+09 -9.81923e+09 -9.90145e+09 -9.90145e+09 -9.98314e+09 -9.98314e+09 -1.00643e+10 -1.00643e+10 -1.01449e+10 -1.01449e+10 -1.0225e+10 -1.0225e+10 -1.03046e+10 -1.03046e+10 -1.03837e+10 -1.03837e+10 -1.04622e+10 -1.04622e+10 -1.05403e+10 -1.05403e+10 -1.06178e+10 -1.06178e+10 -1.06948e+10 -1.06948e+10 -1.07714e+10 -1.07714e+10 -1.08474e+10 -1.08474e+10 -1.0923e+10 -1.0923e+10 -1.0998e+10 -1.0998e+10 -1.10726e+10 -1.10726e+10 -1.11467e+10 -1.11467e+10 -1.12203e+10 -1.12203e+10 -1.12935e+10 -1.12935e+10 -1.13662e+10 -1.13662e+10 -1.14384e+10 -1.14384e+10 -1.15102e+10 -1.15102e+10 -1.15815e+10 -1.15815e+10 -1.16523e+10 -1.16523e+10 -1.17227e+10 -1.17227e+10 -1.17926e+10 -1.17926e+10 -1.18621e+10 -1.18621e+10 -1.19312e+10 -1.19312e+10 -1.19998e+10 -1.19998e+10 -1.2068e+10 -1.2068e+10 -1.21358e+10 -1.21358e+10 -1.22031e+10 -1.22031e+10 -1.227e+10 -1.227e+10 -1.23364e+10 -1.23364e+10 -1.24025e+10 -1.24025e+10 -1.24681e+10 -1.24681e+10 -1.25334e+10 -1.25334e+10 -1.25982e+10 -1.25982e+10 -1.26626e+10 -1.26626e+10 -1.27266e+10 -1.27266e+10 -1.27901e+10 -1.27901e+10 -1.28533e+10 -1.28533e+10 -1.29161e+10 -1.29161e+10 -1.29785e+10 -1.29785e+10 -1.30405e+10 -1.30405e+10 -1.31022e+10 -1.31022e+10 -1.31634e+10 -1.31634e+10 -1.32242e+10 -1.32242e+10 -1.32847e+10 -1.32847e+10 -1.33448e+10 -1.33448e+10 -1.34045e+10 -1.34045e+10 -1.34638e+10 -1.34638e+10 -1.35228e+10 -1.35228e+10 -1.35814e+10 -1.35814e+10 -1.36396e+10 -1.36396e+10 -1.36975e+10 -1.36975e+10 -1.3755e+10 -1.3755e+10 -1.38121e+10 -1.38121e+10 -1.38689e+10 -1.38689e+10 -1.39253e+10 -1.39253e+10 -1.39814e+10 -1.39814e+10 -1.40371e+10 -1.40371e+10 -1.40925e+10 -1.40925e+10 -1.41475e+10 -1.41475e+10 -1.42022e+10 -1.42022e+10 -1.42565e+10 -1.42565e+10 -1.43105e+10 -1.43105e+10 -1.43642e+10 -1.43642e+10 -1.44175e+10 -1.44175e+10 -1.44705e+10 -1.44705e+10 -1.45231e+10 -1.45231e+10 -1.45754e+10 -1.45754e+10 -1.46274e+10 -1.46274e+10 -1.46791e+10 -1.46791e+10 -1.47304e+10 -1.47304e+10 -1.47814e+10 -1.47814e+10 -1.48321e+10 -1.48321e+10 -1.48824e+10 -1.48824e+10 -1.49325e+10 -1.49325e+10 -1.49822e+10 -1.49822e+10 -1.50316e+10 -1.50316e+10 -1.50807e+10 -1.50807e+10 -1.51295e+10 -1.51295e+10 -1.5178e+10 -1.5178e+10 -1.52261e+10 -1.52261e+10 -1.5274e+10 -1.5274e+10 -1.53215e+10 -1.53215e+10 -1.53687e+10 -1.53687e+10 -1.54157e+10 -1.54157e+10 -1.54623e+10 -1.54623e+10 -1.55086e+10 -1.55086e+10 -1.55546e+10 -1.55546e+10 -1.56004e+10 -1.56004e+10 -1.56458e+10 -1.56458e+10 -1.56909e+10 -1.56909e+10 -1.57357e+10 -1.57357e+10 -1.57803e+10 -1.57803e+10 -1.58245e+10 -1.58245e+10 -1.58685e+10 -1.58685e+10 -1.59121e+10 -1.59121e+10 -1.59555e+10 -1.59555e+10 -1.59986e+10 -1.59986e+10 -1.60413e+10 -1.60413e+10 -1.60838e+10 -1.60838e+10 -1.61261e+10 -1.61261e+10 -1.6168e+10 -1.6168e+10 -1.62096e+10 -1.62096e+10 -1.6251e+10 -1.6251e+10 -1.6292e+10 -1.6292e+10 -1.63328e+10 -1.63328e+10 -1.63733e+10 -1.63733e+10 -1.64136e+10 -1.64136e+10 -1.64535e+10 -1.64535e+10 -1.64932e+10 -1.64932e+10 -1.65325e+10 -1.65325e+10 -1.65716e+10 -1.65716e+10 -1.66105e+10 -1.66105e+10 -1.6649e+10 -1.6649e+10 -1.66873e+10 -1.66873e+10 -1.67253e+10 -1.67253e+10 -1.6763e+10 -1.6763e+10 -1.68004e+10 -1.68004e+10 -1.68376e+10 -1.68376e+10 -1.68745e+10 -1.68745e+10 -1.69111e+10 -1.69111e+10 -1.69475e+10 -1.69475e+10 -1.69835e+10 -1.69835e+10 -1.70193e+10 -1.70193e+10 -1.70549e+10 -1.70549e+10 -1.70901e+10 -1.70901e+10 -1.71251e+10 -1.71251e+10 -1.71598e+10 -1.71598e+10 -1.71942e+10 -1.71942e+10 -1.72284e+10 -1.72284e+10 -1.72623e+10 -1.72623e+10 -1.72959e+10 -1.72959e+10 -1.73292e+10 -1.73292e+10 -1.73623e+10 -1.73623e+10 -1.73951e+10 -1.73951e+10 -1.74276e+10 -1.74276e+10 -1.74599e+10 -1.74599e+10 -1.74919e+10 -1.74919e+10 -1.75236e+10 -1.75236e+10 -1.7555e+10 -1.7555e+10 -1.75862e+10 -1.75862e+10 -1.76171e+10 -1.76171e+10 -1.76477e+10 -1.76477e+10 -1.7678e+10 -1.7678e+10 -1.77081e+10 -1.77081e+10 -1.77379e+10 -1.77379e+10 -1.77675e+10 -1.77675e+10 -1.77967e+10 -1.77967e+10 -1.78257e+10 -1.78257e+10 -1.78544e+10 -1.78544e+10 -1.78828e+10 -1.78828e+10 -1.7911e+10 -1.7911e+10 -1.79389e+10 -1.79389e+10 -1.79665e+10 -1.79665e+10 -1.79938e+10 -1.79938e+10 -1.80209e+10 -1.80209e+10 -1.80477e+10 -1.80477e+10 -1.80742e+10 -1.80742e+10 -1.81004e+10 -1.81004e+10 -1.81263e+10 -1.81263e+10 -1.8152e+10 -1.8152e+10 -1.81774e+10 -1.81774e+10 -1.82025e+10 -1.82025e+10 -1.82273e+10 -1.82273e+10 -1.82519e+10 -1.82519e+10 -1.82761e+10 -1.82761e+10 -1.83001e+10 -1.83001e+10 -1.83238e+10 -1.83238e+10 -1.83472e+10 -1.83472e+10 -1.83703e+10 -1.83703e+10 -1.83931e+10 -1.83931e+10 -1.84157e+10 -1.84157e+10 -1.84379e+10 -1.84379e+10 -1.84599e+10 -1.84599e+10 -1.84816e+10 -1.84816e+10 -1.8503e+10 -1.8503e+10 -1.85241e+10 -1.85241e+10 -1.85449e+10 -1.85449e+10 -1.85654e+10 -1.85654e+10 -1.85856e+10 -1.85856e+10 -1.86055e+10 -1.86055e+10 -1.86251e+10 -1.86251e+10 -1.86444e+10 -1.86444e+10 -1.86635e+10 -1.86635e+10 -1.86822e+10 -1.86822e+10 -1.87006e+10 -1.87006e+10 -1.87187e+10 -1.87187e+10 -1.87365e+10 -1.87365e+10 -1.87541e+10 -1.87541e+10 -1.87713e+10 -1.87713e+10 -1.87882e+10 -1.87882e+10 -1.88047e+10 -1.88047e+10 -1.8821e+10 -1.8821e+10 -1.8837e+10 -1.8837e+10 -1.88526e+10 -1.88526e+10 -1.8868e+10 -1.8868e+10 -1.8883e+10 -1.8883e+10 -1.88977e+10 -1.88977e+10 -1.89121e+10 -1.89121e+10 -1.89262e+10 -1.89262e+10 -1.89399e+10 -1.89399e+10 -1.89534e+10 -1.89534e+10 -1.89665e+10 -1.89665e+10 -1.89792e+10 -1.89792e+10 -1.89917e+10 -1.89917e+10 -1.90038e+10 -1.90038e+10 -1.90156e+10 -1.90156e+10 -1.90271e+10 -1.90271e+10 -1.90382e+10 -1.90382e+10 -1.9049e+10 -1.9049e+10 -1.90594e+10 -1.90594e+10 -1.90696e+10 -1.90696e+10 -1.90793e+10 -1.90793e+10 -1.90888e+10 -1.90888e+10 -1.90979e+10 -1.90979e+10 -1.91066e+