# vtk DataFile Version 3.0
#This file was generated by the deal.II library on 2020/9/1 at 15:08:21
ASCII
DATASET UNSTRUCTURED_GRID

POINTS 2048 double
1.5 0 0
1.59619 0 0
1.59619 0 0
1.69238 0 0
1.69238 0 0
1.78857 0 0
1.78857 0 0
1.88477 0 0
1.88477 0 0
1.98096 0 0
1.98096 0 0
2.07715 0 0
2.07715 0 0
2.17334 0 0
2.17334 0 0
2.26953 0 0
2.26953 0 0
2.36572 0 0
2.36572 0 0
2.46191 0 0
2.46191 0 0
2.55811 0 0
2.55811 0 0
2.6543 0 0
2.6543 0 0
2.75049 0 0
2.75049 0 0
2.84668 0 0
2.84668 0 0
2.94287 0 0
2.94287 0 0
3.03906 0 0
3.03906 0 0
3.13525 0 0
3.13525 0 0
3.23145 0 0
3.23145 0 0
3.32764 0 0
3.32764 0 0
3.42383 0 0
3.42383 0 0
3.52002 0 0
3.52002 0 0
3.61621 0 0
3.61621 0 0
3.7124 0 0
3.7124 0 0
3.80859 0 0
3.80859 0 0
3.90479 0 0
3.90479 0 0
4.00098 0 0
4.00098 0 0
4.09717 0 0
4.09717 0 0
4.19336 0 0
4.19336 0 0
4.28955 0 0
4.28955 0 0
4.38574 0 0
4.38574 0 0
4.48193 0 0
4.48193 0 0
4.57812 0 0
4.57812 0 0
4.67432 0 0
4.67432 0 0
4.77051 0 0
4.77051 0 0
4.8667 0 0
4.8667 0 0
4.96289 0 0
4.96289 0 0
5.05908 0 0
5.05908 0 0
5.15527 0 0
5.15527 0 0
5.25146 0 0
5.25146 0 0
5.34766 0 0
5.34766 0 0
5.44385 0 0
5.44385 0 0
5.54004 0 0
5.54004 0 0
5.63623 0 0
5.63623 0 0
5.73242 0 0
5.73242 0 0
5.82861 0 0
5.82861 0 0
5.9248 0 0
5.9248 0 0
6.021 0 0
6.021 0 0
6.11719 0 0
6.11719 0 0
6.21338 0 0
6.21338 0 0
6.30957 0 0
6.30957 0 0
6.40576 0 0
6.40576 0 0
6.50195 0 0
6.50195 0 0
6.59814 0 0
6.59814 0 0
6.69434 0 0
6.69434 0 0
6.79053 0 0
6.79053 0 0
6.88672 0 0
6.88672 0 0
6.98291 0 0
6.98291 0 0
7.0791 0 0
7.0791 0 0
7.17529 0 0
7.17529 0 0
7.27148 0 0
7.27148 0 0
7.36768 0 0
7.36768 0 0
7.46387 0 0
7.46387 0 0
7.56006 0 0
7.56006 0 0
7.65625 0 0
7.65625 0 0
7.75244 0 0
7.75244 0 0
7.84863 0 0
7.84863 0 0
7.94482 0 0
7.94482 0 0
8.04102 0 0
8.04102 0 0
8.13721 0 0
8.13721 0 0
8.2334 0 0
8.2334 0 0
8.32959 0 0
8.32959 0 0
8.42578 0 0
8.42578 0 0
8.52197 0 0
8.52197 0 0
8.61816 0 0
8.61816 0 0
8.71436 0 0
8.71436 0 0
8.81055 0 0
8.81055 0 0
8.90674 0 0
8.90674 0 0
9.00293 0 0
9.00293 0 0
9.09912 0 0
9.09912 0 0
9.19531 0 0
9.19531 0 0
9.2915 0 0
9.2915 0 0
9.3877 0 0
9.3877 0 0
9.48389 0 0
9.48389 0 0
9.58008 0 0
9.58008 0 0
9.67627 0 0
9.67627 0 0
9.77246 0 0
9.77246 0 0
9.86865 0 0
9.86865 0 0
9.96484 0 0
9.96484 0 0
10.061 0 0
10.061 0 0
10.1572 0 0
10.1572 0 0
10.2534 0 0
10.2534 0 0
10.3496 0 0
10.3496 0 0
10.4458 0 0
10.4458 0 0
10.542 0 0
10.542 0 0
10.6382 0 0
10.6382 0 0
10.7344 0 0
10.7344 0 0
10.8306 0 0
10.8306 0 0
10.9268 0 0
10.9268 0 0
11.0229 0 0
11.0229 0 0
11.1191 0 0
11.1191 0 0
11.2153 0 0
11.2153 0 0
11.3115 0 0
11.3115 0 0
11.4077 0 0
11.4077 0 0
11.5039 0 0
11.5039 0 0
11.6001 0 0
11.6001 0 0
11.6963 0 0
11.6963 0 0
11.7925 0 0
11.7925 0 0
11.8887 0 0
11.8887 0 0
11.9849 0 0
11.9849 0 0
12.0811 0 0
12.0811 0 0
12.1772 0 0
12.1772 0 0
12.2734 0 0
12.2734 0 0
12.3696 0 0
12.3696 0 0
12.4658 0 0
12.4658 0 0
12.562 0 0
12.562 0 0
12.6582 0 0
12.6582 0 0
12.7544 0 0
12.7544 0 0
12.8506 0 0
12.8506 0 0
12.9468 0 0
12.9468 0 0
13.043 0 0
13.043 0 0
13.1392 0 0
13.1392 0 0
13.2354 0 0
13.2354 0 0
13.3315 0 0
13.3315 0 0
13.4277 0 0
13.4277 0 0
13.5239 0 0
13.5239 0 0
13.6201 0 0
13.6201 0 0
13.7163 0 0
13.7163 0 0
13.8125 0 0
13.8125 0 0
13.9087 0 0
13.9087 0 0
14.0049 0 0
14.0049 0 0
14.1011 0 0
14.1011 0 0
14.1973 0 0
14.1973 0 0
14.2935 0 0
14.2935 0 0
14.3896 0 0
14.3896 0 0
14.4858 0 0
14.4858 0 0
14.582 0 0
14.582 0 0
14.6782 0 0
14.6782 0 0
14.7744 0 0
14.7744 0 0
14.8706 0 0
14.8706 0 0
14.9668 0 0
14.9668 0 0
15.063 0 0
15.063 0 0
15.1592 0 0
15.1592 0 0
15.2554 0 0
15.2554 0 0
15.3516 0 0
15.3516 0 0
15.4478 0 0
15.4478 0 0
15.5439 0 0
15.5439 0 0
15.6401 0 0
15.6401 0 0
15.7363 0 0
15.7363 0 0
15.8325 0 0
15.8325 0 0
15.9287 0 0
15.9287 0 0
16.0249 0 0
16.0249 0 0
16.1211 0 0
16.1211 0 0
16.2173 0 0
16.2173 0 0
16.3135 0 0
16.3135 0 0
16.4097 0 0
16.4097 0 0
16.5059 0 0
16.5059 0 0
16.6021 0 0
16.6021 0 0
16.6982 0 0
16.6982 0 0
16.7944 0 0
16.7944 0 0
16.8906 0 0
16.8906 0 0
16.9868 0 0
16.9868 0 0
17.083 0 0
17.083 0 0
17.1792 0 0
17.1792 0 0
17.2754 0 0
17.2754 0 0
17.3716 0 0
17.3716 0 0
17.4678 0 0
17.4678 0 0
17.564 0 0
17.564 0 0
17.6602 0 0
17.6602 0 0
17.7563 0 0
17.7563 0 0
17.8525 0 0
17.8525 0 0
17.9487 0 0
17.9487 0 0
18.0449 0 0
18.0449 0 0
18.1411 0 0
18.1411 0 0
18.2373 0 0
18.2373 0 0
18.3335 0 0
18.3335 0 0
18.4297 0 0
18.4297 0 0
18.5259 0 0
18.5259 0 0
18.6221 0 0
18.6221 0 0
18.7183 0 0
18.7183 0 0
18.8145 0 0
18.8145 0 0
18.9106 0 0
18.9106 0 0
19.0068 0 0
19.0068 0 0
19.103 0 0
19.103 0 0
19.1992 0 0
19.1992 0 0
19.2954 0 0
19.2954 0 0
19.3916 0 0
19.3916 0 0
19.4878 0 0
19.4878 0 0
19.584 0 0
19.584 0 0
19.6802 0 0
19.6802 0 0
19.7764 0 0
19.7764 0 0
19.8726 0 0
19.8726 0 0
19.9688 0 0
19.9688 0 0
20.0649 0 0
20.0649 0 0
20.1611 0 0
20.1611 0 0
20.2573 0 0
20.2573 0 0
20.3535 0 0
20.3535 0 0
20.4497 0 0
20.4497 0 0
20.5459 0 0
20.5459 0 0
20.6421 0 0
20.6421 0 0
20.7383 0 0
20.7383 0 0
20.8345 0 0
20.8345 0 0
20.9307 0 0
20.9307 0 0
21.0269 0 0
21.0269 0 0
21.123 0 0
21.123 0 0
21.2192 0 0
21.2192 0 0
21.3154 0 0
21.3154 0 0
21.4116 0 0
21.4116 0 0
21.5078 0 0
21.5078 0 0
21.604 0 0
21.604 0 0
21.7002 0 0
21.7002 0 0
21.7964 0 0
21.7964 0 0
21.8926 0 0
21.8926 0 0
21.9888 0 0
21.9888 0 0
22.085 0 0
22.085 0 0
22.1812 0 0
22.1812 0 0
22.2773 0 0
22.2773 0 0
22.3735 0 0
22.3735 0 0
22.4697 0 0
22.4697 0 0
22.5659 0 0
22.5659 0 0
22.6621 0 0
22.6621 0 0
22.7583 0 0
22.7583 0 0
22.8545 0 0
22.8545 0 0
22.9507 0 0
22.9507 0 0
23.0469 0 0
23.0469 0 0
23.1431 0 0
23.1431 0 0
23.2393 0 0
23.2393 0 0
23.3354 0 0
23.3354 0 0
23.4316 0 0
23.4316 0 0
23.5278 0 0
23.5278 0 0
23.624 0 0
23.624 0 0
23.7202 0 0
23.7202 0 0
23.8164 0 0
23.8164 0 0
23.9126 0 0
23.9126 0 0
24.0088 0 0
24.0088 0 0
24.105 0 0
24.105 0 0
24.2012 0 0
24.2012 0 0
24.2974 0 0
24.2974 0 0
24.3936 0 0
24.3936 0 0
24.4897 0 0
24.4897 0 0
24.5859 0 0
24.5859 0 0
24.6821 0 0
24.6821 0 0
24.7783 0 0
24.7783 0 0
24.8745 0 0
24.8745 0 0
24.9707 0 0
24.9707 0 0
25.0669 0 0
25.0669 0 0
25.1631 0 0
25.1631 0 0
25.2593 0 0
25.2593 0 0
25.3555 0 0
25.3555 0 0
25.4517 0 0
25.4517 0 0
25.5479 0 0
25.5479 0 0
25.644 0 0
25.644 0 0
25.7402 0 0
25.7402 0 0
25.8364 0 0
25.8364 0 0
25.9326 0 0
25.9326 0 0
26.0288 0 0
26.0288 0 0
26.125 0 0
26.125 0 0
26.2212 0 0
26.2212 0 0
26.3174 0 0
26.3174 0 0
26.4136 0 0
26.4136 0 0
26.5098 0 0
26.5098 0 0
26.606 0 0
26.606 0 0
26.7021 0 0
26.7021 0 0
26.7983 0 0
26.7983 0 0
26.8945 0 0
26.8945 0 0
26.9907 0 0
26.9907 0 0
27.0869 0 0
27.0869 0 0
27.1831 0 0
27.1831 0 0
27.2793 0 0
27.2793 0 0
27.3755 0 0
27.3755 0 0
27.4717 0 0
27.4717 0 0
27.5679 0 0
27.5679 0 0
27.6641 0 0
27.6641 0 0
27.7603 0 0
27.7603 0 0
27.8564 0 0
27.8564 0 0
27.9526 0 0
27.9526 0 0
28.0488 0 0
28.0488 0 0
28.145 0 0
28.145 0 0
28.2412 0 0
28.2412 0 0
28.3374 0 0
28.3374 0 0
28.4336 0 0
28.4336 0 0
28.5298 0 0
28.5298 0 0
28.626 0 0
28.626 0 0
28.7222 0 0
28.7222 0 0
28.8184 0 0
28.8184 0 0
28.9146 0 0
28.9146 0 0
29.0107 0 0
29.0107 0 0
29.1069 0 0
29.1069 0 0
29.2031 0 0
29.2031 0 0
29.2993 0 0
29.2993 0 0
29.3955 0 0
29.3955 0 0
29.4917 0 0
29.4917 0 0
29.5879 0 0
29.5879 0 0
29.6841 0 0
29.6841 0 0
29.7803 0 0
29.7803 0 0
29.8765 0 0
29.8765 0 0
29.9727 0 0
29.9727 0 0
30.0688 0 0
30.0688 0 0
30.165 0 0
30.165 0 0
30.2612 0 0
30.2612 0 0
30.3574 0 0
30.3574 0 0
30.4536 0 0
30.4536 0 0
30.5498 0 0
30.5498 0 0
30.646 0 0
30.646 0 0
30.7422 0 0
30.7422 0 0
30.8384 0 0
30.8384 0 0
30.9346 0 0
30.9346 0 0
31.0308 0 0
31.0308 0 0
31.127 0 0
31.127 0 0
31.2231 0 0
31.2231 0 0
31.3193 0 0
31.3193 0 0
31.4155 0 0
31.4155 0 0
31.5117 0 0
31.5117 0 0
31.6079 0 0
31.6079 0 0
31.7041 0 0
31.7041 0 0
31.8003 0 0
31.8003 0 0
31.8965 0 0
31.8965 0 0
31.9927 0 0
31.9927 0 0
32.0889 0 0
32.0889 0 0
32.1851 0 0
32.1851 0 0
32.2812 0 0
32.2812 0 0
32.3774 0 0
32.3774 0 0
32.4736 0 0
32.4736 0 0
32.5698 0 0
32.5698 0 0
32.666 0 0
32.666 0 0
32.7622 0 0
32.7622 0 0
32.8584 0 0
32.8584 0 0
32.9546 0 0
32.9546 0 0
33.0508 0 0
33.0508 0 0
33.147 0 0
33.147 0 0
33.2432 0 0
33.2432 0 0
33.3394 0 0
33.3394 0 0
33.4355 0 0
33.4355 0 0
33.5317 0 0
33.5317 0 0
33.6279 0 0
33.6279 0 0
33.7241 0 0
33.7241 0 0
33.8203 0 0
33.8203 0 0
33.9165 0 0
33.9165 0 0
34.0127 0 0
34.0127 0 0
34.1089 0 0
34.1089 0 0
34.2051 0 0
34.2051 0 0
34.3013 0 0
34.3013 0 0
34.3975 0 0
34.3975 0 0
34.4937 0 0
34.4937 0 0
34.5898 0 0
34.5898 0 0
34.686 0 0
34.686 0 0
34.7822 0 0
34.7822 0 0
34.8784 0 0
34.8784 0 0
34.9746 0 0
34.9746 0 0
35.0708 0 0
35.0708 0 0
35.167 0 0
35.167 0 0
35.2632 0 0
35.2632 0 0
35.3594 0 0
35.3594 0 0
35.4556 0 0
35.4556 0 0
35.5518 0 0
35.5518 0 0
35.6479 0 0
35.6479 0 0
35.7441 0 0
35.7441 0 0
35.8403 0 0
35.8403 0 0
35.9365 0 0
35.9365 0 0
36.0327 0 0
36.0327 0 0
36.1289 0 0
36.1289 0 0
36.2251 0 0
36.2251 0 0
36.3213 0 0
36.3213 0 0
36.4175 0 0
36.4175 0 0
36.5137 0 0
36.5137 0 0
36.6099 0 0
36.6099 0 0
36.7061 0 0
36.7061 0 0
36.8022 0 0
36.8022 0 0
36.8984 0 0
36.8984 0 0
36.9946 0 0
36.9946 0 0
37.0908 0 0
37.0908 0 0
37.187 0 0
37.187 0 0
37.2832 0 0
37.2832 0 0
37.3794 0 0
37.3794 0 0
37.4756 0 0
37.4756 0 0
37.5718 0 0
37.5718 0 0
37.668 0 0
37.668 0 0
37.7642 0 0
37.7642 0 0
37.8604 0 0
37.8604 0 0
37.9565 0 0
37.9565 0 0
38.0527 0 0
38.0527 0 0
38.1489 0 0
38.1489 0 0
38.2451 0 0
38.2451 0 0
38.3413 0 0
38.3413 0 0
38.4375 0 0
38.4375 0 0
38.5337 0 0
38.5337 0 0
38.6299 0 0
38.6299 0 0
38.7261 0 0
38.7261 0 0
38.8223 0 0
38.8223 0 0
38.9185 0 0
38.9185 0 0
39.0146 0 0
39.0146 0 0
39.1108 0 0
39.1108 0 0
39.207 0 0
39.207 0 0
39.3032 0 0
39.3032 0 0
39.3994 0 0
39.3994 0 0
39.4956 0 0
39.4956 0 0
39.5918 0 0
39.5918 0 0
39.688 0 0
39.688 0 0
39.7842 0 0
39.7842 0 0
39.8804 0 0
39.8804 0 0
39.9766 0 0
39.9766 0 0
40.0728 0 0
40.0728 0 0
40.1689 0 0
40.1689 0 0
40.2651 0 0
40.2651 0 0
40.3613 0 0
40.3613 0 0
40.4575 0 0
40.4575 0 0
40.5537 0 0
40.5537 0 0
40.6499 0 0
40.6499 0 0
40.7461 0 0
40.7461 0 0
40.8423 0 0
40.8423 0 0
40.9385 0 0
40.9385 0 0
41.0347 0 0
41.0347 0 0
41.1309 0 0
41.1309 0 0
41.2271 0 0
41.2271 0 0
[...]
POINT_DATA 2048
SCALARS solution_0 double 1
LOOKUP_TABLE default
-6.06469e+12 -6.13236e+12 -6.13236e+12 -6.22286e+12 -6.22286e+12 -6.33014e+12 -6.33014e+12 -6.4496e+12 -6.4496e+12 -6.57777e+12 -6.57777e+12 -6.71198e+12 -6.71198e+12 -6.8502e+12 -6.8502e+12 -6.99085e+12 -6.99085e+12 -7.13271e+12 -7.13271e+12 -7.27484e+12 -7.27484e+12 -7.41652e+12 -7.41652e+12 -7.55717e+12 -7.55717e+12 -7.69637e+12 -7.69637e+12 -7.83376e+12 -7.83376e+12 -7.9691e+12 -7.9691e+12 -8.10218e+12 -8.10218e+12 -8.23287e+12 -8.23287e+12 -8.36105e+12 -8.36105e+12 -8.48666e+12 -8.48666e+12 -8.60963e+12 -8.60963e+12 -8.72994e+12 -8.72994e+12 -8.84757e+12 -8.84757e+12 -8.96253e+12 -8.96253e+12 -9.07482e+12 -9.07482e+12 -9.18446e+12 -9.18446e+12 -9.29146e+12 -9.29146e+12 -9.39587e+12 -9.39587e+12 -9.4977e+12 -9.4977e+12 -9.597e+12 -9.597e+12 -9.69379e+12 -9.69379e+12 -9.78812e+12 -9.78812e+12 -9.88003e+12 -9.88003e+12 -9.96955e+12 -9.96955e+12 -1.00567e+13 -1.00567e+13 -1.01416e+13 -1.01416e+13 -1.02242e+13 -1.02242e+13 -1.03046e+13 -1.03046e+13 -1.03828e+13 -1.03828e+13 -1.04588e+13 -1.04588e+13 -1.05328e+13 -1.05328e+13 -1.06046e+13 -1.06046e+13 -1.06745e+13 -1.06745e+13 -1.07423e+13 -1.07423e+13 -1.08081e+13 -1.08081e+13 -1.08721e+13 -1.08721e+13 -1.09341e+13 -1.09341e+13 -1.09943e+13 -1.09943e+13 -1.10526e+13 -1.10526e+13 -1.11091e+13 -1.11091e+13 -1.11639e+13 -1.11639e+13 -1.12169e+13 -1.12169e+13 -1.12683e+13 -1.12683e+13 -1.13179e+13 -1.13179e+13 -1.13659e+13 -1.13659e+13 -1.14122e+13 -1.14122e+13 -1.1457e+13 -1.1457e+13 -1.15002e+13 -1.15002e+13 -1.15418e+13 -1.15418e+13 -1.15819e+13 -1.15819e+13 -1.16206e+13 -1.16206e+13 -1.16577e+13 -1.16577e+13 -1.16934e+13 -1.16934e+13 -1.17277e+13 -1.17277e+13 -1.17605e+13 -1.17605e+13 -1.1792e+13 -1.1792e+13 -1.18221e+13 -1.18221e+13 -1.18509e+13 -1.18509e+13 -1.18783e+13 -1.18783e+13 -1.19044e+13 -1.19044e+13 -1.19293e+13 -1.19293e+13 -1.19529e+13 -1.19529e+13 -1.19753e+13 -1.19753e+13 -1.19964e+13 -1.19964e+13 -1.20163e+13 -1.20163e+13 -1.20351e+13 -1.20351e+13 -1.20526e+13 -1.20526e+13 -1.20691e+13 -1.20691e+13 -1.20843e+13 -1.20843e+13 -1.20985e+13 -1.20985e+13 -1.21116e+13 -1.21116e+13 -1.21235e+13 -1.21235e+13 -1.21345e+13 -1.21345e+13 -1.21443e+13 -1.21443e+13 -1.21531e+13 -1.21531e+13 -1.21609e+13 -1.21609e+13 -1.21677e+13 -1.21677e+13 -1.21735e+13 -1.21735e+13 -1.21783e+13 -1.21783e+13 -1.21821e+13 -1.21821e+13 -1.2185e+13 -1.2185e+13 -1.2187e+13 -1.2187e+13 -1.2188e+13 -1.2188e+13 -1.21881e+13 -1.21881e+13 -1.21874e+13 -1.21874e+13 -1.21857e+13 -1.21857e+13 -1.21832e+13 -1.21832e+13 -1.21798e+13 -1.21798e+13 -1.21756e+13 -1.21756e+13 -1.21705e+13 -1.21705e+13 -1.21646e+13 -1.21646e+13 -1.21579e+13 -1.21579e+13 -1.21505e+13 -1.21505e+13 -1.21422e+13 -1.21422e+13 -1.21332e+13 -1.21332e+13 -1.21234e+13 -1.21234e+13 -1.21128e+13 -1.21128e+13 -1.21016e+13 -1.21016e+13 -1.20896e+13 -1.20896e+13 -1.20768e+13 -1.20768e+13 -1.20634e+13 -1.20634e+13 -1.20493e+13 -1.20493e+13 -1.20345e+13 -1.20345e+13 -1.20191e+13 -1.20191e+13 -1.20029e+13 -1.20029e+13 -1.19862e+13 -1.19862e+13 -1.19687e+13 -1.19687e+13 -1.19507e+13 -1.19507e+13 -1.1932e+13 -1.1932e+13 -1.19128e+13 -1.19128e+13 -1.18929e+13 -1.18929e+13 -1.18724e+13 -1.18724e+13 -1.18514e+13 -1.18514e+13 -1.18298e+13 -1.18298e+13 -1.18076e+13 -1.18076e+13 -1.17849e+13 -1.17849e+13 -1.17616e+13 -1.17616e+13 -1.17378e+13 -1.17378e+13 -1.17135e+13 -1.17135e+13 -1.16886e+13 -1.16886e+13 -1.16633e+13 -1.16633e+13 -1.16374e+13 -1.16374e+13 -1.16111e+13 -1.16111e+13 -1.15843e+13 -1.15843e+13 -1.1557e+13 -1.1557e+13 -1.15292e+13 -1.15292e+13 -1.1501e+13 -1.1501e+13 -1.14723e+13 -1.14723e+13 -1.14432e+13 -1.14432e+13 -1.14137e+13 -1.14137e+13 -1.13838e+13 -1.13838e+13 -1.13534e+13 -1.13534e+13 -1.13226e+13 -1.13226e+13 -1.12915e+13 -1.12915e+13 -1.12599e+13 -1.12599e+13 -1.1228e+13 -1.1228e+13 -1.11956e+13 -1.11956e+13 -1.11629e+13 -1.11629e+13 -1.11299e+13 -1.11299e+13 -1.10965e+13 -1.10965e+13 -1.10627e+13 -1.10627e+13 -1.10286e+13 -1.10286e+13 -1.09942e+13 -1.09942e+13 -1.09594e+13 -1.09594e+13 -1.09244e+13 -1.09244e+13 -1.0889e+13 -1.0889e+13 -1.08533e+13 -1.08533e+13 -1.08173e+13 -1.08173e+13 -1.0781e+13 -1.0781e+13 -1.07444e+13 -1.07444e+13 -1.07076e+13 -1.07076e+13 -1.06705e+13 -1.06705e+13 -1.06331e+13 -1.06331e+13 -1.05955e+13 -1.05955e+13 -1.05576e+13 -1.05576e+13 -1.05194e+13 -1.05194e+13 -1.0481e+13 -1.0481e+13 -1.04424e+13 -1.04424e+13 -1.04036e+13 -1.04036e+13 -1.03645e+13 -1.03645e+13 -1.03252e+13 -1.03252e+13 -1.02857e+13 -1.02857e+13 -1.0246e+13 -1.0246e+13 -1.02061e+13 -1.02061e+13 -1.0166e+13 -1.0166e+13 -1.01257e+13 -1.01257e+13 -1.00852e+13 -1.00852e+13 -1.00445e+13 -1.00445e+13 -1.00037e+13 -1.00037e+13 -9.96271e+12 -9.96271e+12 -9.92155e+12 -9.92155e+12 -9.88024e+12 -9.88024e+12 -9.83877e+12 -9.83877e+12 -9.79715e+12 -9.79715e+12 -9.7554e+12 -9.7554e+12 -9.7135e+12 -9.7135e+12 -9.67148e+12 -9.67148e+12 -9.62933e+12 -9.62933e+12 -9.58705e+12 -9.58705e+12 -9.54466e+12 -9.54466e+12 -9.50215e+12 -9.50215e+12 -9.45953e+12 -9.45953e+12 -9.41681e+12 -9.41681e+12 -9.37399e+12 -9.37399e+12 -9.33108e+12 -9.33108e+12 -9.28808e+12 -9.28808e+12 -9.24498e+12 -9.24498e+12 -9.20181e+12 -9.20181e+12 -9.15856e+12 -9.15856e+12 -9.11523e+12 -9.11523e+12 -9.07184e+12 -9.07184e+12 -9.02838e+12 -9.02838e+12 -8.98486e+12 -8.98486e+12 -8.94128e+12 -8.94128e+12 -8.89764e+12 -8.89764e+12 -8.85396e+12 -8.85396e+12 -8.81023e+12 -8.81023e+12 -8.76646e+12 -8.76646e+12 -8.72265e+12 -8.72265e+12 -8.67881e+12 -8.67881e+12 -8.63493e+12 -8.63493e+12 -8.59103e+12 -8.59103e+12 -8.5471e+12 -8.5471e+12 -8.50316e+12 -8.50316e+12 -8.45919e+12 -8.45919e+12 -8.41522e+12 -8.41522e+12 -8.37123e+12 -8.37123e+12 -8.32723e+12 -8.32723e+12 -8.28323e+12 -8.28323e+12 -8.23923e+12 -8.23923e+12 -8.19523e+12 -8.19523e+12 -8.15124e+12 -8.15124e+12 -8.10726e+12 -8.10726e+12 -8.06329e+12 -8.06329e+12 -8.01933e+12 -8.01933e+12 -7.97539e+12 -7.97539e+12 -7.93148e+12 -7.93148e+12 -7.88758e+12 -7.88758e+12 -7.84371e+12 -7.84371e+12 -7.79987e+12 -7.79987e+12 -7.75607e+12 -7.75607e+12 -7.71229e+12 -7.71229e+12 -7.66856e+12 -7.66856e+12 -7.62486e+12 -7.62486e+12 -7.58121e+12 -7.58121e+12 -7.5376e+12 -7.5376e+12 -7.49403e+12 -7.49403e+12 -7.45052e+12 -7.45052e+12 -7.40706e+12 -7.40706e+12 -7.36366e+12 -7.36366e+12 -7.32031e+12 -7.32031e+12 -7.27702e+12 -7.27702e+12 -7.23379e+12 -7.23379e+12 -7.19063e+12 -7.19063e+12 -7.14753e+12 -7.14753e+12 -7.1045e+12 -7.1045e+12 -7.06154e+12 -7.06154e+12 -7.01865e+12 -7.01865e+12 -6.97584e+12 -6.97584e+12 -6.9331e+12 -6.9331e+12 -6.89044e+12 -6.89044e+12 -6.84786e+12 -6.84786e+12 -6.80537e+12 -6.80537e+12 -6.76295e+12 -6.76295e+12 -6.72063e+12 -6.72063e+12 -6.67839e+12 -6.67839e+12 -6.63624e+12 -6.63624e+12 -6.59418e+12 -6.59418e+12 -6.55221e+12 -6.55221e+12 -6.51034e+12 -6.51034e+12 -6.46857e+12 -6.46857e+12 -6.42689e+12 -6.42689e+12 -6.38531e+12 -6.38531e+12 -6.34383e+12 -6.34383e+12 -6.30246e+12 -6.30246e+12 -6.26119e+12 -6.26119e+12 -6.22002e+12 -6.22002e+12 -6.17896e+12 -6.17896e+12 -6.13801e+12 -6.13801e+12 -6.09717e+12 -6.09717e+12 -6.05644e+12 -6.05644e+12 -6.01582e+12 -6.01582e+12 -5.97532e+12 -5.97532e+12 -5.93493e+12 -5.93493e+12 -5.89465e+12 -5.89465e+12 -5.8545e+12 -5.8545e+12 -5.81446e+12 -5.81446e+12 -5.77454e+12 -5.77454e+12 -5.73474e+12 -5.73474e+12 -5.69507e+12 -5.69507e+12 -5.65552e+12 -5.65552e+12 -5.61609e+12 -5.61609e+12 -5.57678e+12 -5.57678e+12 -5.5376e+12 -5.5376e+12 -5.49855e+12 -5.49855e+12 -5.45963e+12 -5.45963e+12 -5.42083e+12 -5.42083e+12 -5.38217e+12 -5.38217e+12 -5.34363e+12 -5.34363e+12 -5.30523e+12 -5.30523e+12 -5.26696e+12 -5.26696e+12 -5.22882e+12 -5.22882e+12 -5.19081e+12 -5.19081e+12 -5.15294e+12 -5.15294e+12 -5.11521e+12 -5.11521e+12 -5.07761e+12 -5.07761e+12 -5.04015e+12 -5.04015e+12 -5.00282e+12 -5.00282e+12 -4.96563e+12 -4.96563e+12 -4.92859e+12 -4.92859e+12 -4.89168e+12 -4.89168e+12 -4.85491e+12 -4.85491e+12 -4.81828e+12 -4.81828e+12 -4.78179e+12 -4.78179e+12 -4.74544e+12 -4.74544e+12 -4.70924e+12 -4.70924e+12 -4.67318e+12 -4.67318e+12 -4.63726e+12 -4.63726e+12 -4.60148e+12 -4.60148e+12 -4.56585e+12 -4.56585e+12 -4.53036e+12 -4.53036e+12 -4.49502e+12 -4.49502e+12 -4.45982e+12 -4.45982e+12 -4.42477e+12 -4.42477e+12 -4.38986e+12 -4.38986e+12 -4.3551e+12 -4.3551e+12 -4.32048e+12 -4.32048e+12 -4.28602e+12 -4.28602e+12 -4.2517e+12 -4.2517e+12 -4.21752e+12 -4.21752e+12 -4.1835e+12 -4.1835e+12 -4.14962e+12 -4.14962e+12 -4.11589e+12 -4.11589e+12 -4.0823e+12 -4.0823e+12 -4.04887e+12 -4.04887e+12 -4.01558e+12 -4.01558e+12 -3.98245e+12 -3.98245e+12 -3.94946e+12 -3.94946e+12 -3.91662e+12 -3.91662e+12 -3.88393e+12 -3.88393e+12 -3.85138e+12 -3.85138e+12 -3.81899e+12 -3.81899e+12 -3.78675e+12 -3.78675e+12 -3.75465e+12 -3.75465e+12 -3.72271e+12 -3.72271e+12 -3.69091e+12 -3.69091e+12 -3.65927e+12 -3.65927e+12 -3.62777e+12 -3.62777e+12 -3.59642e+12 -3.59642e+12 -3.56523e+12 -3.56523e+12 -3.53418e+12 -3.53418e+12 -3.50328e+12 -3.50328e+12 -3.47253e+12 -3.47253e+12 -3.44193e+12 -3.44193e+12 -3.41147e+12 -3.41147e+12 -3.38117e+12 -3.38117e+12 -3.35102e+12 -3.35102e+12 -3.32101e+12 -3.32101e+12 -3.29116e+12 -3.29116e+12 -3.26145e+12 -3.26145e+12 -3.23189e+12 -3.23189e+12 -3.20248e+12 -3.20248e+12 -3.17321e+12 -3.17321e+12 -3.1441e+12 -3.1441e+12 -3.11513e+12 -3.11513e+12 -3.08631e+12 -3.08631e+12 -3.05764e+12 -3.05764e+12 -3.02911e+12 -3.02911e+12 -3.00073e+12 -3.00073e+12 -2.9725e+12 -2.9725e+12 -2.94441e+12 -2.94441e+12 -2.91647e+12 -2.91647e+12 -2.88868e+12 -2.88868e+12 -2.86103e+12 -2.86103e+12 -2.83353e+12 -2.83353e+12 -2.80617e+12 -2.80617e+12 -2.77896e+12 -2.77896e+12 -2.75189e+12 -2.75189e+12 -2.72497e+12 -2.72497e+12 -2.69819e+12 -2.69819e+12 -2.67155e+12 -2.67155e+12 -2.64506e+12 -2.64506e+12 -2.61871e+12 -2.61871e+12 -2.5925e+12 -2.5925e+12 -2.56644e+12 -2.56644e+12 -2.54051e+12 -2.54051e+12 -2.51473e+12 -2.51473e+12 -2.48909e+12 -2.48909e+12 -2.46359e+12 -2.46359e+12 -2.43823e+12 -2.43823e+12 -2.41302e+12 -2.41302e+12 -2.38794e+12 -2.38794e+12 -2.363e+12 -2.363e+12 -2.3382e+12 -2.3382e+12 -2.31353e+12 -2.31353e+12 -2.28901e+12 -2.28901e+12 -2.26462e+12 -2.26462e+12 -2.24038e+12 -2.24038e+12 -2.21626e+12 -2.21626e+12 -2.19229e+12 -2.19229e+12 -2.16845e+12 -2.16845e+12 -2.14475e+12 -2.14475e+12 -2.12118e+12 -2.12118e+12 -2.09774e+12 -2.09774e+12 -2.07444e+12 -2.07444e+12 -2.05128e+12 -2.05128e+12 -2.02825e+12 -2.02825e+12 -2.00535e+12 -2.00535e+12 -1.98258e+12 -1.98258e+12 -1.95994e+12 -1.95994e+12 -1.93744e+12 -1.93744e+12 -1.91507e+12 -1.91507e+12 -1.89283e+12 -1.89283e+12 -1.87072e+12 -1.87072e+12 -1.84873e+12 -1.84873e+12 -1.82688e+12 -1.82688e+12 -1.80516e+12 -1.80516e+12 -1.78356e+12 -1.78356e+12 -1.76209e+12 -1.76209e+12 -1.74075e+12 -1.74075e+12 -1.71954e+12 -1.71954e+12 -1.69845e+12 -1.69845e+12 -1.67748e+12 -1.67748e+12 -1.65665e+12 -1.65665e+12 -1.63593e+12 -1.63593e+12 -1.61534e+12 -1.61534e+12 -1.59488e+12 -1.59488e+12 -1.57454e+12 -1.57454e+12 -1.55432e+12 -1.55432e+12 -1.53422e+12 -1.53422e+12 -1.51424e+12 -1.51424e+12 -1.49438e+12 -1.49438e+12 -1.47465e+12 -1.47465e+12 -1.45503e+12 -1.45503e+12 -1.43554e+12 -1.43554e+12 -1.41616e+12 -1.41616e+12 -1.3969e+12 -1.3969e+12 -1.37776e+12 -1.37776e+12 -1.35874e+12 -1.35874e+12 -1.33983e+12 -1.33983e+12 -1.32104e+12 -1.32104e+12 -1.30236e+12 -1.30236e+12 -1.2838e+12 -1.2838e+12 -1.26536e+12 -1.26536e+12 -1.24703e+12 -1.24703e+12 -1.22881e+12 -1.22881e+12 -1.2107e+12 -1.2107e+12 -1.19271e+12 -1.19271e+12 -1.17483e+12 -1.17483e+12 -1.15706e+12 -1.15706e+12 -1.1394e+12 -1.1394e+12 -1.12185e+12 -1.12185e+12 -1.10441e+12 -1.10441e+12 -1.08708e+12 -1.08708e+12 -1.06986e+12 -1.06986e+12 -1.05275e+12 -1.05275e+12 -1.03574e+12 -1.03574e+12 -1.01884e+12 -1.01884e+12 -1.00205e+12 -1.00205e+12 -9.85362e+11 -9.85362e+11 -9.6878e+11 -9.6878e+11 -9.52303e+11 -9.52303e+11 -9.35931e+11 -9.35931e+11 -9.19661e+11 -9.19661e+11 -9.03495e+11 -9.03495e+11 -8.87432e+11 -8.87432e+11 -8.7147e+11 -8.7147e+11 -8.5561e+11 -8.5561e+11 -8.39851e+11 -8.39851e+11 -8.24192e+11 -8.24192e+11 -8.08633e+11 -8.08633e+11 -7.93173e+11 -7.93173e+11 -7.77812e+11 -7.77812e+11 -7.62549e+11 -7.62549e+11 -7.47384e+11 -7.47384e+11 -7.32316e+11 -7.32316e+11 -7.17344e+11 -7.17344e+11 -7.02469e+11 -7.02469e+11 -6.87689e+11 -6.87689e+11 -6.73003e+11 -6.73003e+11 -6.58413e+11 -6.58413e+11 -6.43916e+11 -6.43916e+11 -6.29513e+11 -6.29513e+11 -6.15202e+11 -6.15202e+11 -6.00984e+11 -6.00984e+11 -5.86857e+11 -5.86857e+11 -5.72822e+11 -5.72822e+11 -5.58877e+11 -5.58877e+11 -5.45023e+11 -5.45023e+11 -5.31258e+11 -5.31258e+11 -5.17582e+11 -5.17582e+11 -5.03995e+11 -5.03995e+11 -4.90496e+11 -4.90496e+11 -4.77085e+11 -4.77085e+11 -4.6376e+11 -4.6376e+11 -4.50522e+11 -4.50522e+11 -4.37371e+11 -4.37371e+11 -4.24304e+11 -4.24304e+11 -4.11323e+11 -4.11323e+11 -3.98426e+11 -3.98426e+11 -3.85613e+11 -3.85613e+11 -3.72883e+11 -3.72883e+11 -3.60237e+11 -3.60237e+11 -3.47673e+11 -3.47673e+11 -3.3519e+11 -3.3519e+11 -3.2279e+11 -3.2279e+11 -3.1047e+11 -3.1047e+11 -2.9823e+11 -2.9823e+11 -2.86071e+11 -2.86071e+11 -2.73991e+11 -2.73991e+11 -2.6199e+11 -2.6199e+11 -2.50067e+11 -2.50067e+11 -2.38222e+11 -2.38222e+11 -2.26455e+11 -2.26455e+11 -2.14765e+11 -2.14765e+11 -2.03151e+11 -2.03151e+11 -1.91614e+11 -1.91614e+11 -1.80152e+11 -1.80152e+11 -1.68765e+11 -1.68765e+11 -1.57452e+11 -1.57452e+11 -1.46214e+11 -1.46214e+11 -1.35049e+11 -1.35049e+11 -1.23958e+11 -1.23958e+11 -1.12939e+11 -1.12939e+11 -1.01992e+11 -1.01992e+11 -9.11177e+10 -9.11177e+10 -8.03143e+10 -8.03143e+10 -6.95818e+10 -6.95818e+10 -5.89196e+10 -5.89196e+10 -4.83274e+10 -4.83274e+10 -3.78047e+10 -3.78047e+10 -2.7351e+10 -2.7351e+10 -1.69659e+10 -1.69659e+10 -6.64894e+09 -6.64894e+09 3.60032e+09 3.60032e+09 1.37823e+10 1.37823e+10 2.38975e+10 2.38975e+10 3.39463e+10 3.39463e+10 4.39292e+10 4.39292e+10 5.38466e+10 5.38466e+10 6.36989e+10 6.36989e+10 7.34865e+10 7.34865e+10 8.321e+10 8.321e+10 9.28696e+10 9.28696e+10 1.02466e+11 1.02466e+11 1.11999e+11 1.11999e+11 1.2147e+11 1.2147e+11 1.30879e+11 1.30879e+11 1.40226e+11 1.40226e+11 1.49512e+11 1.49512e+11 1.58736e+11 1.58736e+11 1.67901e+11 1.67901e+11 1.77005e+11 1.77005e+11 1.8605e+11 1.8605e+11 1.95035e+11 1.95035e+11 2.03962e+11 2.03962e+11 2.1283e+11 2.1283e+11 2.2164e+11 2.2164e+11 2.30392e+11 2.30392e+11 2.39088e+11 2.39088e+11 2.47726e+11 2.47726e+11 2.56307e+11 2.56307e+11 2.64833e+11 2.64833e+11 2.73303e+11 2.73303e+11 2.81717e+11 2.81717e+11 2.90077e+11 2.90077e+11 2.98381e+11 2.98381e+11 3.06632e+11 3.06632e+11 3.14829e+11 3.14829e+11 3.22972e+11 3.22972e+11 3.31062e+11 3.31062e+11 3.39099e+11 3.39099e+11 3.47083e+11 3.47083e+11 3.55016e+11 3.55016e+11 3.62897e+11 3.62897e+11 3.70726e+11 3.70726e+11 3.78505e+11 3.78505e+11 3.86233e+11 3.86233e+11 3.9391e+11 3.9391e+11 4.01538e+11 4.01538e+11 4.09116e+11 4.09116e+11 4.16644e+11 4.16644e+11 4.24124e+11 4.24124e+11 4.31554e+11 4.31554e+11 4.38937e+11 4.38937e+11 4.46272e+11 4.46272e+11 4.53558e+11 4.53558e+11 4.60798e+11 4.60798e+11 4.67991e+11 4.67991e+11 4.75136e+11 4.75136e+11 4.82236e+11 4.82236e+11 4.89289e+11 4.89289e+11 4.96297e+11 4.96297e+11 5.03259e+11 5.03259e+11 5.10176e+11 5.10176e+11 5.17048e+11 5.17048e+11 5.23876e+11 5.23876e+11 5.30659e+11 5.30659e+11 5.37399e+11 5.37399e+11 5.44095e+11 5.44095e+11 5.50747e+11 5.50747e+11 5.57357e+11 5.57357e+11 5.63923e+11 5.63923e+11 5.70448e+11 5.70448e+11 5.7693e+11 5.7693e+11 5.8337e+11 5.8337e+11 5.89768e+11 5.89768e+11 5.96125e+11 5.96125e+11 6.02441e+11 6.02441e+11 6.08716e+11 6.08716e+11 6.14951e+11 6.14951e+11 6.21145e+11 6.21145e+11 6.273e+11 6.273e+11 6.33414e+11 6.33414e+11 6.39489e+11 6.39489e+11 6.45525e+11 6.45525e+11 6.51522e+11 6.51522e+11 6.5748e+11 6.5748e+11 6.634e+11 6.634e+11 6.69282e+11 6.69282e+11 6.75125e+11 6.75125e+11 6.80931e+11 6.80931e+11 6.867e+11 6.867e+11 6.92431e+11 6.92431e+11 6.98125e+11 6.98125e+11 7.03782e+11 7.03782e+11 7.09403e+11 7.09403e+11 7.14987e+11 7.14987e+11 7.20536e+11 7.20536e+11 7.26049e+11 7.26049e+11 7.31526e+11 7.31526e+11 7.36967e+11 7.36967e+11 7.42374e+11 7.42374e+11 7.47745e+11 7.47745e+11 7.53082e+11 7.53082e+11 7.58384e+11 7.58384e+11 7.63652e+11 7.63652e+11 7.68886e+11 7.68886e+11 7.74086e+11 7.74086e+11 7.79252e+11 7.79252e+11 7.84385e+11 7.84385e+11 7.89484e+11 7.89484e+11 7.94551e+11 7.94551e+11 7.99584e+11 7.99584e+11 8.04585e+11 8.04585e+11 8.09553e+11 8.09553e+11 8.14489e+11 8.14489e+11 8.19393e+11 8.19393e+11 8.24265e+11 8.24265e+11 8.29105e+11 8.29105e+11 8.33914e+11 8.33914e+11 8.38691e+11 8.38691e+11 8.43437e+11 8.43437e+11 8.48152e+11 8.48152e+11 8.52836e+11 8.52836e+11 8.5749e+11 8.5749e+11 8.62112e+11 8.62112e+11 8.66705e+11 8.66705e+11 8.71267e+11 8.71267e+11 8.758e+11 8.758e+11 8.80302e+11 8.80302e+11 8.84775e+11 8.84775e+11 8.89218e+11 8.89218e+11 8.93632e+11 8.93632e+11 8.98017e+11 8.98017e+11 9.02372e+11 9.02372e+11 9.06699e+11 9.06699e+11 9.10996e+11 9.10996e+11 9.15265e+11 9.15265e+11 9.19506e+11 9.19506e+11 9.23718e+11 9.23718e+11 9.27902e+11 9.27902e+11 9.32058e+11 9.32058e+11 9.36186e+11 9.36186e+11 9.40286e+11 9.40286e+11 9.44359e+11 9.44359e+11 9.48404e+11 9.48404e+11 9.52421e+11 9.52421e+11 9.56411e+11 9.56411e+11 9.60374e+11 9.60374e+11 9.6431e+11 9.6431e+11 9.68219e+11 9.68219e+11 9.72101e+11 9.72101e+11 9.75957e+11 9.75957e+11 9.79786e+11 9.79786e+11 9.83588e+11 9.83588e+11 9.87364e+11 9.87364e+11 9.91114e+11 9.91114e+11 9.94837e+11 9.94837e+11 9.98535e+11 9.98535e+11 1.00221e+12 1.00221e+12 1.00585e+12 1.00585e+12 1.00947e+12 1.00947e+12 1.01307e+12 1.01307e+12 1.01663e+12 1.01663e+12 1.02018e+12 1.02018e+12 1.0237e+12 1.0237e+12 1.02719e+12 1.02719e+12 1.03066e+12 1.03066e+12 1.0341e+12 1.0341e+12 1.03752e+12 1.03752e+12 1.04091e+12 1.04091e+12 1.04427e+12 1.04427e+12 1.04762e+12 1.04762e+12 1.05093e+12 1.05093e+12 1.05423e+12 1.05423e+12 1.0575e+12 1.0575e+12 1.06074e+12 1.06074e+12 1.06396e+12 1.06396e+12 1.06716e+12 1.06716e+12 1.07033e+12 1.07033e+12 1.07347e+12 1.07347e+12 1.0766e+12 1.0766e+12 1.07969e+12 1.07969e+12 1.08277e+12 1.08277e+12 1.08582e+12 1.08582e+12 1.08885e+12 1.08885e+12 1.09185e+12 1.09185e+12 1.09483e+12 1.09483e+12 1.09778e+12 1.09778e+12 1.10071e+12 1.10071e+12 1.10362e+12 1.10362e+12 1.1065e+12 1.1065e+12 1.10936e+12 1.10936e+12 1.1122e+12 1.1122e+12 1.11501e+12 1.11501e+12 1.1178e+12 1.1178e+12 1.12057e+12 1.12057e+12 1.12331e+12 1.12331e+12 1.12603e+12 1.12603e+12 1.12873e+12 1.12873e+12 1.1314e+12 1.1314e+12 1.13405e+12 1.13405e+12 1.13668e+12 1.13668e+12 1.13928e+12 1.13928e+12 1.14186e+12 1.14186e+12 1.14442e+12 1.14442e+12 1.14695e+12 1.14695e+12 1.14946e+12 1.14946e+12 1.15195e+12 1.15195e+12 1.15441e+12 1.15441e+12 1.15685e+12 1.15685e+12 1.15927e+12 1.15927e+12 1.16166e+12 1.16166e+12 1.16404e+12 1.16404e+12 1.16638e+12 1.16638e+12 1.16871e+12 1.16871e+12 1.17101e+12 1.17101e+12 1.17329e+12 1.17329e+12 1.17555e+12 1.17555e+12 1.17778e+12 1.17778e+12 1.17999e+12 1.17999e+12 1.18218e+12 1.18218e+12 1.18434e+12 1.18434e+12 1.18648e+12 1.18648e+12 1.1886e+12 1.1886e+12 1.19069e+12 1.19069e+12 1.19277e+12 1.19277e+12 1.19481e+12 1.19481e+12 1.19684e+12 1.19684e+12 1.19884e+12 1.19884e+12 1.20082e+12 1.20082e+12 1.20278e+12 1.20278e+12 1.20471e+12 1.20471e+12 1.20662e+12 1.20662e+12 1.20851e+12 1.20851e+12 1.21037e+12 1.21037e+12 1.21221e+12 1.21221e+12 1.21403e+12 1.21403e+12 1.21582e+12 1.21582e+12 1.21759e+12 1.21759e+12 1.21933e+12 1.21933e+12 1.22106e+12 1.22106e+12 1.22276e+12 1.22276e+12 1.22443e+12 1.22443e+12 1.22609e+12 1.22609e+12 1.22771e+12 1.22771e+12 1.22932e+12 1.22932e+12 1.2309e+12 1.2309e+12 1.23246e+12 1.23246e+12 1.23399e+12 1.23399e+12 1.2355e+12 1.2355e+12 1.23699e+12 1.23699e+12 1.23845e+12 1.23845e+12 1.23989e+12 1.23989e+12 1.24131e+12 1.24131e+12 1.2427e+12 1.2427e+12 1.24407e+12 1.24407e+12 1.24541e+12 1.24541e+12 1.24673e+12 1.24673e+12 1.24802e+12 1.24802e+12 1.24929e+12 1.24929e+12 1.25054e+12 1.25054e+12 1.25176e+12 1.25176e+12 1.25296e+12 1.25296e+12 1.25413e+12 1.25413e+12 1.25528e+12 1.25528e+12 1.2564e+12 1.2564e+12 1.2575e+12 1.2575e+12 1.25858e+12 1.25858e+12 1.25963e+12 1.25963e+12 1.26065e+12 1.26065e+12 1.26165e+12 1.26165e+12 1.26263e+12 1.26263e+12 1.26358e+12 1.26