# vtk DataFile Version 3.0
#This file was generated by the deal.II library on 2020/9/1 at 15:07:07
ASCII
DATASET UNSTRUCTURED_GRID

POINTS 2048 double
1.5 0 0
1.59619 0 0
1.59619 0 0
1.69238 0 0
1.69238 0 0
1.78857 0 0
1.78857 0 0
1.88477 0 0
1.88477 0 0
1.98096 0 0
1.98096 0 0
2.07715 0 0
2.07715 0 0
2.17334 0 0
2.17334 0 0
2.26953 0 0
2.26953 0 0
2.36572 0 0
2.36572 0 0
2.46191 0 0
2.46191 0 0
2.55811 0 0
2.55811 0 0
2.6543 0 0
2.6543 0 0
2.75049 0 0
2.75049 0 0
2.84668 0 0
2.84668 0 0
2.94287 0 0
2.94287 0 0
3.03906 0 0
3.03906 0 0
3.13525 0 0
3.13525 0 0
3.23145 0 0
3.23145 0 0
3.32764 0 0
3.32764 0 0
3.42383 0 0
3.42383 0 0
3.52002 0 0
3.52002 0 0
3.61621 0 0
3.61621 0 0
3.7124 0 0
3.7124 0 0
3.80859 0 0
3.80859 0 0
3.90479 0 0
3.90479 0 0
4.00098 0 0
4.00098 0 0
4.09717 0 0
4.09717 0 0
4.19336 0 0
4.19336 0 0
4.28955 0 0
4.28955 0 0
4.38574 0 0
4.38574 0 0
4.48193 0 0
4.48193 0 0
4.57812 0 0
4.57812 0 0
4.67432 0 0
4.67432 0 0
4.77051 0 0
4.77051 0 0
4.8667 0 0
4.8667 0 0
4.96289 0 0
4.96289 0 0
5.05908 0 0
5.05908 0 0
5.15527 0 0
5.15527 0 0
5.25146 0 0
5.25146 0 0
5.34766 0 0
5.34766 0 0
5.44385 0 0
5.44385 0 0
5.54004 0 0
5.54004 0 0
5.63623 0 0
5.63623 0 0
5.73242 0 0
5.73242 0 0
5.82861 0 0
5.82861 0 0
5.9248 0 0
5.9248 0 0
6.021 0 0
6.021 0 0
6.11719 0 0
6.11719 0 0
6.21338 0 0
6.21338 0 0
6.30957 0 0
6.30957 0 0
6.40576 0 0
6.40576 0 0
6.50195 0 0
6.50195 0 0
6.59814 0 0
6.59814 0 0
6.69434 0 0
6.69434 0 0
6.79053 0 0
6.79053 0 0
6.88672 0 0
6.88672 0 0
6.98291 0 0
6.98291 0 0
7.0791 0 0
7.0791 0 0
7.17529 0 0
7.17529 0 0
7.27148 0 0
7.27148 0 0
7.36768 0 0
7.36768 0 0
7.46387 0 0
7.46387 0 0
7.56006 0 0
7.56006 0 0
7.65625 0 0
7.65625 0 0
7.75244 0 0
7.75244 0 0
7.84863 0 0
7.84863 0 0
7.94482 0 0
7.94482 0 0
8.04102 0 0
8.04102 0 0
8.13721 0 0
8.13721 0 0
8.2334 0 0
8.2334 0 0
8.32959 0 0
8.32959 0 0
8.42578 0 0
8.42578 0 0
8.52197 0 0
8.52197 0 0
8.61816 0 0
8.61816 0 0
8.71436 0 0
8.71436 0 0
8.81055 0 0
8.81055 0 0
8.90674 0 0
8.90674 0 0
9.00293 0 0
9.00293 0 0
9.09912 0 0
9.09912 0 0
9.19531 0 0
9.19531 0 0
9.2915 0 0
9.2915 0 0
9.3877 0 0
9.3877 0 0
9.48389 0 0
9.48389 0 0
9.58008 0 0
9.58008 0 0
9.67627 0 0
9.67627 0 0
9.77246 0 0
9.77246 0 0
9.86865 0 0
9.86865 0 0
9.96484 0 0
9.96484 0 0
10.061 0 0
10.061 0 0
10.1572 0 0
10.1572 0 0
10.2534 0 0
10.2534 0 0
10.3496 0 0
10.3496 0 0
10.4458 0 0
10.4458 0 0
10.542 0 0
10.542 0 0
10.6382 0 0
10.6382 0 0
10.7344 0 0
10.7344 0 0
10.8306 0 0
10.8306 0 0
10.9268 0 0
10.9268 0 0
11.0229 0 0
11.0229 0 0
11.1191 0 0
11.1191 0 0
11.2153 0 0
11.2153 0 0
11.3115 0 0
11.3115 0 0
11.4077 0 0
11.4077 0 0
11.5039 0 0
11.5039 0 0
11.6001 0 0
11.6001 0 0
11.6963 0 0
11.6963 0 0
11.7925 0 0
11.7925 0 0
11.8887 0 0
11.8887 0 0
11.9849 0 0
11.9849 0 0
12.0811 0 0
12.0811 0 0
12.1772 0 0
12.1772 0 0
12.2734 0 0
12.2734 0 0
12.3696 0 0
12.3696 0 0
12.4658 0 0
12.4658 0 0
12.562 0 0
12.562 0 0
12.6582 0 0
12.6582 0 0
12.7544 0 0
12.7544 0 0
12.8506 0 0
12.8506 0 0
12.9468 0 0
12.9468 0 0
13.043 0 0
13.043 0 0
13.1392 0 0
13.1392 0 0
13.2354 0 0
13.2354 0 0
13.3315 0 0
13.3315 0 0
13.4277 0 0
13.4277 0 0
13.5239 0 0
13.5239 0 0
13.6201 0 0
13.6201 0 0
13.7163 0 0
13.7163 0 0
13.8125 0 0
13.8125 0 0
13.9087 0 0
13.9087 0 0
14.0049 0 0
14.0049 0 0
14.1011 0 0
14.1011 0 0
14.1973 0 0
14.1973 0 0
14.2935 0 0
14.2935 0 0
14.3896 0 0
14.3896 0 0
14.4858 0 0
14.4858 0 0
14.582 0 0
14.582 0 0
14.6782 0 0
14.6782 0 0
14.7744 0 0
14.7744 0 0
14.8706 0 0
14.8706 0 0
14.9668 0 0
14.9668 0 0
15.063 0 0
15.063 0 0
15.1592 0 0
15.1592 0 0
15.2554 0 0
15.2554 0 0
15.3516 0 0
15.3516 0 0
15.4478 0 0
15.4478 0 0
15.5439 0 0
15.5439 0 0
15.6401 0 0
15.6401 0 0
15.7363 0 0
15.7363 0 0
15.8325 0 0
15.8325 0 0
15.9287 0 0
15.9287 0 0
16.0249 0 0
16.0249 0 0
16.1211 0 0
16.1211 0 0
16.2173 0 0
16.2173 0 0
16.3135 0 0
16.3135 0 0
16.4097 0 0
16.4097 0 0
16.5059 0 0
16.5059 0 0
16.6021 0 0
16.6021 0 0
16.6982 0 0
16.6982 0 0
16.7944 0 0
16.7944 0 0
16.8906 0 0
16.8906 0 0
16.9868 0 0
16.9868 0 0
17.083 0 0
17.083 0 0
17.1792 0 0
17.1792 0 0
17.2754 0 0
17.2754 0 0
17.3716 0 0
17.3716 0 0
17.4678 0 0
17.4678 0 0
17.564 0 0
17.564 0 0
17.6602 0 0
17.6602 0 0
17.7563 0 0
17.7563 0 0
17.8525 0 0
17.8525 0 0
17.9487 0 0
17.9487 0 0
18.0449 0 0
18.0449 0 0
18.1411 0 0
18.1411 0 0
18.2373 0 0
18.2373 0 0
18.3335 0 0
18.3335 0 0
18.4297 0 0
18.4297 0 0
18.5259 0 0
18.5259 0 0
18.6221 0 0
18.6221 0 0
18.7183 0 0
18.7183 0 0
18.8145 0 0
18.8145 0 0
18.9106 0 0
18.9106 0 0
19.0068 0 0
19.0068 0 0
19.103 0 0
19.103 0 0
19.1992 0 0
19.1992 0 0
19.2954 0 0
19.2954 0 0
19.3916 0 0
19.3916 0 0
19.4878 0 0
19.4878 0 0
19.584 0 0
19.584 0 0
19.6802 0 0
19.6802 0 0
19.7764 0 0
19.7764 0 0
19.8726 0 0
19.8726 0 0
19.9688 0 0
19.9688 0 0
20.0649 0 0
20.0649 0 0
20.1611 0 0
20.1611 0 0
20.2573 0 0
20.2573 0 0
20.3535 0 0
20.3535 0 0
20.4497 0 0
20.4497 0 0
20.5459 0 0
20.5459 0 0
20.6421 0 0
20.6421 0 0
20.7383 0 0
20.7383 0 0
20.8345 0 0
20.8345 0 0
20.9307 0 0
20.9307 0 0
21.0269 0 0
21.0269 0 0
21.123 0 0
21.123 0 0
21.2192 0 0
21.2192 0 0
21.3154 0 0
21.3154 0 0
21.4116 0 0
21.4116 0 0
21.5078 0 0
21.5078 0 0
21.604 0 0
21.604 0 0
21.7002 0 0
21.7002 0 0
21.7964 0 0
21.7964 0 0
21.8926 0 0
21.8926 0 0
21.9888 0 0
21.9888 0 0
22.085 0 0
22.085 0 0
22.1812 0 0
22.1812 0 0
22.2773 0 0
22.2773 0 0
22.3735 0 0
22.3735 0 0
22.4697 0 0
22.4697 0 0
22.5659 0 0
22.5659 0 0
22.6621 0 0
22.6621 0 0
22.7583 0 0
22.7583 0 0
22.8545 0 0
22.8545 0 0
22.9507 0 0
22.9507 0 0
23.0469 0 0
23.0469 0 0
23.1431 0 0
23.1431 0 0
23.2393 0 0
23.2393 0 0
23.3354 0 0
23.3354 0 0
23.4316 0 0
23.4316 0 0
23.5278 0 0
23.5278 0 0
23.624 0 0
23.624 0 0
23.7202 0 0
23.7202 0 0
23.8164 0 0
23.8164 0 0
23.9126 0 0
23.9126 0 0
24.0088 0 0
24.0088 0 0
24.105 0 0
24.105 0 0
24.2012 0 0
24.2012 0 0
24.2974 0 0
24.2974 0 0
24.3936 0 0
24.3936 0 0
24.4897 0 0
24.4897 0 0
24.5859 0 0
24.5859 0 0
24.6821 0 0
24.6821 0 0
24.7783 0 0
24.7783 0 0
24.8745 0 0
24.8745 0 0
24.9707 0 0
24.9707 0 0
25.0669 0 0
25.0669 0 0
25.1631 0 0
25.1631 0 0
25.2593 0 0
25.2593 0 0
25.3555 0 0
25.3555 0 0
25.4517 0 0
25.4517 0 0
25.5479 0 0
25.5479 0 0
25.644 0 0
25.644 0 0
25.7402 0 0
25.7402 0 0
25.8364 0 0
25.8364 0 0
25.9326 0 0
25.9326 0 0
26.0288 0 0
26.0288 0 0
26.125 0 0
26.125 0 0
26.2212 0 0
26.2212 0 0
26.3174 0 0
26.3174 0 0
26.4136 0 0
26.4136 0 0
26.5098 0 0
26.5098 0 0
26.606 0 0
26.606 0 0
26.7021 0 0
26.7021 0 0
26.7983 0 0
26.7983 0 0
26.8945 0 0
26.8945 0 0
26.9907 0 0
26.9907 0 0
27.0869 0 0
27.0869 0 0
27.1831 0 0
27.1831 0 0
27.2793 0 0
27.2793 0 0
27.3755 0 0
27.3755 0 0
27.4717 0 0
27.4717 0 0
27.5679 0 0
27.5679 0 0
27.6641 0 0
27.6641 0 0
27.7603 0 0
27.7603 0 0
27.8564 0 0
27.8564 0 0
27.9526 0 0
27.9526 0 0
28.0488 0 0
28.0488 0 0
28.145 0 0
28.145 0 0
28.2412 0 0
28.2412 0 0
28.3374 0 0
28.3374 0 0
28.4336 0 0
28.4336 0 0
28.5298 0 0
28.5298 0 0
28.626 0 0
28.626 0 0
28.7222 0 0
28.7222 0 0
28.8184 0 0
28.8184 0 0
28.9146 0 0
28.9146 0 0
29.0107 0 0
29.0107 0 0
29.1069 0 0
29.1069 0 0
29.2031 0 0
29.2031 0 0
29.2993 0 0
29.2993 0 0
29.3955 0 0
29.3955 0 0
29.4917 0 0
29.4917 0 0
29.5879 0 0
29.5879 0 0
29.6841 0 0
29.6841 0 0
29.7803 0 0
29.7803 0 0
29.8765 0 0
29.8765 0 0
29.9727 0 0
29.9727 0 0
30.0688 0 0
30.0688 0 0
30.165 0 0
30.165 0 0
30.2612 0 0
30.2612 0 0
30.3574 0 0
30.3574 0 0
30.4536 0 0
30.4536 0 0
30.5498 0 0
30.5498 0 0
30.646 0 0
30.646 0 0
30.7422 0 0
30.7422 0 0
30.8384 0 0
30.8384 0 0
30.9346 0 0
30.9346 0 0
31.0308 0 0
31.0308 0 0
31.127 0 0
31.127 0 0
31.2231 0 0
31.2231 0 0
31.3193 0 0
31.3193 0 0
31.4155 0 0
31.4155 0 0
31.5117 0 0
31.5117 0 0
31.6079 0 0
31.6079 0 0
31.7041 0 0
31.7041 0 0
31.8003 0 0
31.8003 0 0
31.8965 0 0
31.8965 0 0
31.9927 0 0
31.9927 0 0
32.0889 0 0
32.0889 0 0
32.1851 0 0
32.1851 0 0
32.2812 0 0
32.2812 0 0
32.3774 0 0
32.3774 0 0
32.4736 0 0
32.4736 0 0
32.5698 0 0
32.5698 0 0
32.666 0 0
32.666 0 0
32.7622 0 0
32.7622 0 0
32.8584 0 0
32.8584 0 0
32.9546 0 0
32.9546 0 0
33.0508 0 0
33.0508 0 0
33.147 0 0
33.147 0 0
33.2432 0 0
33.2432 0 0
33.3394 0 0
33.3394 0 0
33.4355 0 0
33.4355 0 0
33.5317 0 0
33.5317 0 0
33.6279 0 0
33.6279 0 0
33.7241 0 0
33.7241 0 0
33.8203 0 0
33.8203 0 0
33.9165 0 0
33.9165 0 0
34.0127 0 0
34.0127 0 0
34.1089 0 0
34.1089 0 0
34.2051 0 0
34.2051 0 0
34.3013 0 0
34.3013 0 0
34.3975 0 0
34.3975 0 0
34.4937 0 0
34.4937 0 0
34.5898 0 0
34.5898 0 0
34.686 0 0
34.686 0 0
34.7822 0 0
34.7822 0 0
34.8784 0 0
34.8784 0 0
34.9746 0 0
34.9746 0 0
35.0708 0 0
35.0708 0 0
35.167 0 0
35.167 0 0
35.2632 0 0
35.2632 0 0
35.3594 0 0
35.3594 0 0
35.4556 0 0
35.4556 0 0
35.5518 0 0
35.5518 0 0
35.6479 0 0
35.6479 0 0
35.7441 0 0
35.7441 0 0
35.8403 0 0
35.8403 0 0
35.9365 0 0
35.9365 0 0
36.0327 0 0
36.0327 0 0
36.1289 0 0
36.1289 0 0
36.2251 0 0
36.2251 0 0
36.3213 0 0
36.3213 0 0
36.4175 0 0
36.4175 0 0
36.5137 0 0
36.5137 0 0
36.6099 0 0
36.6099 0 0
36.7061 0 0
36.7061 0 0
36.8022 0 0
36.8022 0 0
36.8984 0 0
36.8984 0 0
36.9946 0 0
36.9946 0 0
37.0908 0 0
37.0908 0 0
37.187 0 0
37.187 0 0
37.2832 0 0
37.2832 0 0
37.3794 0 0
37.3794 0 0
37.4756 0 0
37.4756 0 0
37.5718 0 0
37.5718 0 0
37.668 0 0
37.668 0 0
37.7642 0 0
37.7642 0 0
37.8604 0 0
37.8604 0 0
37.9565 0 0
37.9565 0 0
38.0527 0 0
38.0527 0 0
38.1489 0 0
38.1489 0 0
38.2451 0 0
38.2451 0 0
38.3413 0 0
38.3413 0 0
38.4375 0 0
38.4375 0 0
38.5337 0 0
38.5337 0 0
38.6299 0 0
38.6299 0 0
38.7261 0 0
38.7261 0 0
38.8223 0 0
38.8223 0 0
38.9185 0 0
38.9185 0 0
39.0146 0 0
39.0146 0 0
39.1108 0 0
39.1108 0 0
39.207 0 0
39.207 0 0
39.3032 0 0
39.3032 0 0
39.3994 0 0
39.3994 0 0
39.4956 0 0
39.4956 0 0
39.5918 0 0
39.5918 0 0
39.688 0 0
39.688 0 0
39.7842 0 0
39.7842 0 0
39.8804 0 0
39.8804 0 0
39.9766 0 0
39.9766 0 0
40.0728 0 0
40.0728 0 0
40.1689 0 0
40.1689 0 0
40.2651 0 0
40.2651 0 0
40.3613 0 0
40.3613 0 0
40.4575 0 0
40.4575 0 0
40.5537 0 0
40.5537 0 0
40.6499 0 0
40.6499 0 0
40.7461 0 0
40.7461 0 0
40.8423 0 0
40.8423 0 0
40.9385 0 0
40.9385 0 0
41.0347 0 0
41.0347 0 0
41.1309 0 0
41.1309 0 0
41.2271 0 0
41.2271 0 0
[...]
POINT_DATA 2048
SCALARS solution_0 double 1
LOOKUP_TABLE default
-162592 -158725 -158725 -155278 -155278 -152201 -152201 -149446 -149446 -146970 -146970 -144738 -144738 -142717 -142717 -140879 -140879 -139201 -139201 -137661 -137661 -136241 -136241 -134925 -134925 -133700 -133700 -132553 -132553 -131473 -131473 -130453 -130453 -129482 -129482 -128555 -128555 -127665 -127665 -126806 -126806 -125974 -125974 -125165 -125165 -124374 -124374 -123599 -123599 -122836 -122836 -122082 -122082 -121337 -121337 -120596 -120596 -119860 -119860 -119126 -119126 -118392 -118392 -117659 -117659 -116923 -116923 -116186 -116186 -115445 -115445 -114701 -114701 -113952 -113952 -113198 -113198 -112439 -112439 -111675 -111675 -110904 -110904 -110127 -110127 -109344 -109344 -108554 -108554 -107758 -107758 -106955 -106955 -106145 -106145 -105329 -105329 -104506 -104506 -103676 -103676 -102839 -102839 -101997 -101997 -101148 -101148 -100292 -100292 -99430.8 -99430.8 -98563.4 -98563.4 -97690.2 -97690.2 -96811.4 -96811.4 -95927.2 -95927.2 -95037.6 -95037.6 -94143 -94143 -93243.5 -93243.5 -92339.3 -92339.3 -91430.6 -91430.6 -90517.6 -90517.6 -89600.5 -89600.5 -88679.5 -88679.5 -87754.9 -87754.9 -86826.8 -86826.8 -85895.5 -85895.5 -84961.1 -84961.1 -84023.9 -84023.9 -83084.1 -83084.1 -82141.8 -82141.8 -81197.4 -81197.4 -80250.9 -80250.9 -79302.7 -79302.7 -78352.9 -78352.9 -77401.6 -77401.6 -76449.2 -76449.2 -75495.8 -75495.8 -74541.5 -74541.5 -73586.7 -73586.7 -72631.4 -72631.4 -71675.9 -71675.9 -70720.3 -70720.3 -69764.8 -69764.8 -68809.7 -68809.7 -67855 -67855 -66901 -66901 -65947.8 -65947.8 -64995.5 -64995.5 -64044.4 -64044.4 -63094.6 -63094.6 -62146.3 -62146.3 -61199.6 -61199.6 -60254.7 -60254.7 -59311.6 -59311.6 -58370.6 -58370.6 -57431.9 -57431.9 -56495.4 -56495.4 -55561.5 -55561.5 -54630.1 -54630.1 -53701.5 -53701.5 -52775.7 -52775.7 -51852.9 -51852.9 -50933.3 -50933.3 -50016.8 -50016.8 -49103.7 -49103.7 -48194 -48194 -47287.9 -47287.9 -46385.5 -46385.5 -45486.8 -45486.8 -44592 -44592 -43701.2 -43701.2 -42814.4 -42814.4 -41931.8 -41931.8 -41053.4 -41053.4 -40179.4 -40179.4 -39309.8 -39309.8 -38444.6 -38444.6 -37584.1 -37584.1 -36728.2 -36728.2 -35877 -35877 -35030.7 -35030.7 -34189.2 -34189.2 -33352.7 -33352.7 -32521.1 -32521.1 -31694.7 -31694.7 -30873.3 -30873.3 -30057.2 -30057.2 -29246.3 -29246.3 -28440.7 -28440.7 -27640.5 -27640.5 -26845.7 -26845.7 -26056.3 -26056.3 -25272.4 -25272.4 -24494.1 -24494.1 -23721.3 -23721.3 -22954.2 -22954.2 -22192.7 -22192.7 -21437 -21437 -20687 -20687 -19942.7 -19942.7 -19204.3 -19204.3 -18471.7 -18471.7 -17744.9 -17744.9 -17024.1 -17024.1 -16309.1 -16309.1 -15600.1 -15600.1 -14897.1 -14897.1 -14200 -14200 -13508.9 -13508.9 -12823.9 -12823.9 -12144.8 -12144.8 -11471.8 -11471.8 -10804.9 -10804.9 -10144.1 -10144.1 -9489.29 -9489.29 -8840.6 -8840.6 -8198.01 -8198.01 -7561.52 -7561.52 -6931.15 -6931.15 -6306.89 -6306.89 -5688.74 -5688.74 -5076.72 -5076.72 -4470.81 -4470.81 -3871.02 -3871.02 -3277.36 -3277.36 -2689.8 -2689.8 -2108.36 -2108.36 -1533.02 -1533.02 -963.788 -963.788 -400.649 -400.649 156.402 156.402 707.375 707.375 1252.28 1252.28 1791.12 1791.12 2323.91 2323.91 2850.67 2850.67 3371.4 3371.4 3886.12 3886.12 4394.85 4394.85 4897.59 4897.59 5394.37 5394.37 5885.2 5885.2 6370.1 6370.1 6849.08 6849.08 7322.17 7322.17 7789.38 7789.38 8250.73 8250.73 8706.25 8706.25 9155.95 9155.95 9599.86 9599.86 10038 10038 10470.4 10470.4 10897.1 10897.1 11318 11318 11733.3 11733.3 12142.9 12142.9 12547 12547 12945.4 12945.4 13338.2 13338.2 13725.5 13725.5 14107.3 14107.3 14483.5 14483.5 14854.3 14854.3 15219.7 15219.7 15579.7 15579.7 15934.3 15934.3 16283.5 16283.5 16627.4 16627.4 16966 16966 17299.4 17299.4 17627.6 17627.6 17950.5 17950.5 18268.3 18268.3 18580.9 18580.9 18888.4 18888.4 19190.9 19190.9 19488.3 19488.3 19780.8 19780.8 20068.2 20068.2 20350.7 20350.7 20628.3 20628.3 20901 20901 21168.9 21168.9 21432 21432 21690.3 21690.3 21943.8 21943.8 22192.7 22192.7 22436.9 22436.9 22676.4 22676.4 22911.4 22911.4 23141.7 23141.7 23367.6 23367.6 23588.9 23588.9 23805.8 23805.8 24018.2 24018.2 24226.3 24226.3 24430 24430 24629.3 24629.3 24824.4 24824.4 25015.2 25015.2 25201.8 25201.8 25384.2 25384.2 25562.5 25562.5 25736.6 25736.6 25906.7 25906.7 26072.8 26072.8 26234.8 26234.8 26392.8 26392.8 26546.9 26546.9 26697.2 26697.2 26843.5 26843.5 26986 26986 27124.7 27124.7 27259.7 27259.7 27390.9 27390.9 27518.4 27518.4 27642.3 27642.3 27762.6 27762.6 27879.2 27879.2 27992.3 27992.3 28101.9 28101.9 28208 28208 28310.7 28310.7 28410 28410 28505.8 28505.8 28598.3 28598.3 28687.6 28687.6 28773.5 28773.5 28856.2 28856.2 28935.7 28935.7 29012 29012 29085.1 29085.1 29155.2 29155.2 29222.1 29222.1 29286.1 29286.1 29347 29347 29404.9 29404.9 29459.9 29459.9 29512 29512 29561.2 29561.2 29607.6 29607.6 29651.2 29651.2 29691.9 29691.9 29729.9 29729.9 29765.2 29765.2 29797.9 29797.9 29827.8 29827.8 29855.2 29855.2 29879.9 29879.9 29902.1 29902.1 29921.8 29921.8 29938.9 29938.9 29953.6 29953.6 29965.8 29965.8 29975.7 29975.7 29983.2 29983.2 29988.3 29988.3 29991.1 29991.1 29991.6 29991.6 29989.8 29989.8 29985.9 29985.9 29979.7 29979.7 29971.4 29971.4 29960.9 29960.9 29948.3 29948.3 29933.6 29933.6 29916.8 29916.8 29898 29898 29877.3 29877.3 29854.5 29854.5 29829.8 29829.8 29803.2 29803.2 29774.7 29774.7 29744.3 29744.3 29712.1 29712.1 29678.1 29678.1 29642.3 29642.3 29604.7 29604.7 29565.4 29565.4 29524.4 29524.4 29481.7 29481.7 29437.3 29437.3 29391.3 29391.3 29343.7 29343.7 29294.6 29294.6 29243.8 29243.8 29191.5 29191.5 29137.8 29137.8 29082.5 29082.5 29025.8 29025.8 28967.6 28967.6 28908.1 28908.1 28847.1 28847.1 28784.8 28784.8 28721.1 28721.1 28656.1 28656.1 28589.8 28589.8 28522.2 28522.2 28453.4 28453.4 28383.3 28383.3 28312.1 28312.1 28239.6 28239.6 28166 28166 28091.2 28091.2 28015.3 28015.3 27938.3 27938.3 27860.2 27860.2 27781 27781 27700.8 27700.8 27619.6 27619.6 27537.4 27537.4 27454.1 27454.1 27370 27370 27284.8 27284.8 27198.8 27198.8 27111.8 27111.8 27024 27024 26935.3 26935.3 26845.7 26845.7 26755.3 26755.3 26664.1 26664.1 26572.1 26572.1 26479.3 26479.3 26385.7 26385.7 26291.4 26291.4 26196.4 26196.4 26100.6 26100.6 26004.2 26004.2 25907.1 25907.1 25809.3 25809.3 25710.9 25710.9 25611.8 25611.8 25512.1 25512.1 25411.9 25411.9 25311 25311 25209.6 25209.6 25107.7 25107.7 25005.2 25005.2 24902.2 24902.2 24798.6 24798.6 24694.6 24694.6 24590.1 24590.1 24485.2 24485.2 24379.8 24379.8 24273.9 24273.9 24167.7 24167.7 24061 24061 23953.9 23953.9 23846.5 23846.5 23738.7 23738.7 23630.5 23630.5 23522 23522 23413.2 23413.2 23304 23304 23194.6 23194.6 23084.8 23084.8 22974.8 22974.8 22864.5 22864.5 22754 22754 22643.2 22643.2 22532.2 22532.2 22420.9 22420.9 22309.4 22309.4 22197.8 22197.8 22085.9 22085.9 21973.9 21973.9 21861.7 21861.7 21749.4 21749.4 21636.9 21636.9 21524.3 21524.3 21411.5 21411.5 21298.6 21298.6 21185.7 21185.7 21072.6 21072.6 20959.4 20959.4 20846.2 20846.2 20732.9 20732.9 20619.5 20619.5 20506.1 20506.1 20392.7 20392.7 20279.2 20279.2 20165.7 20165.7 20052.1 20052.1 19938.6 19938.6 19825.1 19825.1 19711.6 19711.6 19598.1 19598.1 19484.6 19484.6 19371.1 19371.1 19257.7 19257.7 19144.4 19144.4 19031.1 19031.1 18917.9 18917.9 18804.7 18804.7 18691.6 18691.6 18578.7 18578.7 18465.8 18465.8 18353 18353 18240.3 18240.3 18127.7 18127.7 18015.2 18015.2 17902.9 17902.9 17790.7 17790.7 17678.6 17678.6 17566.7 17566.7 17454.9 17454.9 17343.3 17343.3 17231.9 17231.9 17120.6 17120.6 17009.5 17009.5 16898.5 16898.5 16787.8 16787.8 16677.2 16677.2 16566.9 16566.9 16456.7 16456.7 16346.7 16346.7 16237 16237 16127.5 16127.5 16018.1 16018.1 15909.1 15909.1 15800.2 15800.2 15691.6 15691.6 15583.2 15583.2 15475 15475 15367.1 15367.1 15259.5 15259.5 15152.1 15152.1 15045 15045 14938.1 14938.1 14831.5 14831.5 14725.2 14725.2 14619.1 14619.1 14513.3 14513.3 14407.8 14407.8 14302.6 14302.6 14197.7 14197.7 14093 14093 13988.7 13988.7 13884.7 13884.7 13780.9 13780.9 13677.5 13677.5 13574.4 13574.4 13471.6 13471.6 13369.1 13369.1 13266.9 13266.9 13165 13165 13063.5 13063.5 12962.2 12962.2 12861.4 12861.4 12760.8 12760.8 12660.6 12660.6 12560.7 12560.7 12461.1 12461.1 12361.9 12361.9 12263 12263 12164.5 12164.5 12066.3 12066.3 11968.5 11968.5 11871 11871 11773.8 11773.8 11677.1 11677.1 11580.6 11580.6 11484.6 11484.6 11388.8 11388.8 11293.5 11293.5 11198.5 11198.5 11103.9 11103.9 11009.6 11009.6 10915.7 10915.7 10822.2 10822.2 10729 10729 10636.3 10636.3 10543.8 10543.8 10451.8 10451.8 10360.1 10360.1 10268.9 10268.9 10177.9 10177.9 10087.4 10087.4 9997.27 9997.27 9907.5 9907.5 9818.11 9818.11 9729.1 9729.1 9640.48 9640.48 9552.24 9552.24 9464.38 9464.38 9376.92 9376.92 9289.83 9289.83 9203.14 9203.14 9116.83 9116.83 9030.92 9030.92 8945.39 8945.39 8860.25 8860.25 8775.5 8775.5 8691.15 8691.15 8607.18 8607.18 8523.61 8523.61 8440.43 8440.43 8357.64 8357.64 8275.25 8275.25 8193.25 8193.25 8111.64 8111.64 8030.43 8030.43 7949.61 7949.61 7869.19 7869.19 7789.16 7789.16 7709.53 7709.53 7630.29 7630.29 7551.45 7551.45 7473 7473 7394.95 7394.95 7317.29 7317.29 7240.03 7240.03 7163.17 7163.17 7086.7 7086.7 7010.62 7010.62 6934.95 6934.95 6859.67 6859.67 6784.78 6784.78 6710.29 6710.29 6636.19 6636.19 6562.49 6562.49 6489.19 6489.19 6416.28 6416.28 6343.76 6343.76 6271.64 6271.64 6199.92 6199.92 6128.58 6128.58 6057.64 6057.64 5987.1 5987.1 5916.94 5916.94 5847.18 5847.18 5777.82 5777.82 5708.84 5708.84 5640.26 5640.26 5572.07 5572.07 5504.27 5504.27 5436.86 5436.86 5369.84 5369.84 5303.21 5303.21 5236.97 5236.97 5171.11 5171.11 5105.65 5105.65 5040.58 5040.58 4975.89 4975.89 4911.59 4911.59 4847.68 4847.68 4784.15 4784.15 4721.01 4721.01 4658.25 4658.25 4595.88 4595.88 4533.89 4533.89 4472.29 4472.29 4411.07 4411.07 4350.23 4350.23 4289.77 4289.77 4229.7 4229.7 4170 4170 4110.69 4110.69 4051.75 4051.75 3993.2 3993.2 3935.02 3935.02 3877.22 3877.22 3819.8 3819.8 3762.75 3762.75 3706.08 3706.08 3649.78 3649.78 3593.86 3593.86 3538.31 3538.31 3483.14 3483.14 3428.34 3428.34 3373.91 3373.91 3319.85 3319.85 3266.16 3266.16 3212.85 3212.85 3159.9 3159.9 3107.32 3107.32 3055.11 3055.11 3003.26 3003.26 2951.79 2951.79 2900.67 2900.67 2849.93 2849.93 2799.55 2799.55 2749.53 2749.53 2699.87 2699.87 2650.58 2650.58 2601.65 2601.65 2553.08 2553.08 2504.87 2504.87 2457.02 2457.02 2409.53 2409.53 2362.4 2362.4 2315.63 2315.63 2269.21 2269.21 2223.15 2223.15 2177.44 2177.44 2132.09 2132.09 2087.09 2087.09 2042.45 2042.45 1998.16 1998.16 1954.22 1954.22 1910.64 1910.64 1867.4 1867.4 1824.51 1824.51 1781.98 1781.98 1739.79 1739.79 1697.95 1697.95 1656.45 1656.45 1615.31 1615.31 1574.5 1574.5 1534.05 1534.05 1493.94 1493.94 1454.17 1454.17 1414.74 1414.74 1375.66 1375.66 1336.92 1336.92 1298.52 1298.52 1260.46 1260.46 1222.74 1222.74 1185.36 1185.36 1148.32 1148.32 1111.61 1111.61 1075.24 1075.24 1039.21 1039.21 1003.52 1003.52 968.156 968.156 933.129 933.129 898.436 898.436 864.075 864.075 830.047 830.047 796.351 796.351 762.986 762.986 729.95 729.95 697.245 697.245 664.868 664.868 632.82 632.82 601.1 601.1 569.706 569.706 538.639 538.639 507.898 507.898 477.482 477.482 447.39 447.39 417.623 417.623 388.178 388.178 359.056 359.056 330.256 330.256 301.777 301.777 273.619 273.619 245.78 245.78 218.261 218.261 191.061 191.061 164.179 164.179 137.615 137.615 111.367 111.367 85.4356 85.4356 59.8197 59.8197 34.5187 34.5187 9.53213 9.53213 -15.1408 -15.1408 -39.5006 -39.5006 -63.5479 -63.5479 -87.2835 -87.2835 -110.708 -110.708 -133.822 -133.822 -156.625 -156.625 -179.12 -179.12 -201.306 -201.306 -223.183 -223.183 -244.754 -244.754 -266.017 -266.017 -286.974 -286.974 -307.626 -307.626 -327.973 -327.973 -348.016 -348.016 -367.755 -367.755 -387.191 -387.191 -406.324 -406.324 -425.156 -425.156 -443.687 -443.687 -461.917 -461.917 -479.848 -479.848 -497.479 -497.479 -514.812 -514.812 -531.847 -531.847 -548.585 -548.585 -565.026 -565.026 -581.171 -581.171 -597.022 -597.022 -612.577 -612.577 -627.839 -627.839 -642.808 -642.808 -657.484 -657.484 -671.868 -671.868 -685.962 -685.962 -699.764 -699.764 -713.278 -713.278 -726.502 -726.502 -739.437 -739.437 -752.085 -752.085 -764.447 -764.447 -776.522 -776.522 -788.311 -788.311 -799.816 -799.816 -811.037 -811.037 -821.975 -821.975 -832.63 -832.63 -843.004 -843.004 -853.097 -853.097 -862.91 -862.91 -872.443 -872.443 -881.698 -881.698 -890.675 -890.675 -899.375 -899.375 -907.799 -907.799 -915.948 -915.948 -923.822 -923.822 -931.422 -931.422 -938.75 -938.75 -945.806 -945.806 -952.591 -952.591 -959.106 -959.106 -965.352 -965.352 -971.329 -971.329 -977.039 -977.039 -982.483 -982.483 -987.661 -987.661 -992.574 -992.574 -997.224 -997.224 -1001.61 -1001.61 -1005.74 -1005.74 -1009.6 -1009.6 -1013.21 -1013.21 -1016.55 -1016.55 -1019.64 -1019.64 -1022.48 -1022.48 -1025.05 -1025.05 -1027.38 -1027.38 -1029.45 -1029.45 -1031.26 -1031.26 -1032.83 -1032.83 -1034.15 -1034.15 -1035.21 -1035.21 -1036.04 -1036.04 -1036.61 -1036.61 -1036.94 -1036.94 -1037.03 -1037.03 -1036.87 -1036.87 -1036.47 -1036.47 -1035.83 -1035.83 -1034.96 -1034.96 -1033.84 -1033.84 -1032.49 -1032.49 -1030.91 -1030.91 -1029.09 -1029.09 -1027.04 -1027.04 -1024.76 -1024.76 -1022.25 -1022.25 -1019.51 -1019.51 -1016.55 -1016.55 -1013.36 -1013.36 -1009.96 -1009.96 -1006.32 -1006.32 -1002.47 -1002.47 -998.404 -998.404 -994.119 -994.119 -989.619 -989.619 -984.905 -984.905 -979.98 -979.98 -974.846 -974.846 -969.503 -969.503 -963.954 -963.954 -958.201 -958.201 -952.246 -952.246 -946.09 -946.09 -939.735 -939.735 -933.183 -933.183 -926.437 -926.437 -919.498 -919.498 -912.368 -912.368 -905.049 -905.049 -897.544 -897.544 -889.854 -889.854 -881.981 -881.981 -873.928 -873.928 -865.698 -865.698 -857.291 -857.291 -848.711 -848.711 -839.96 -839.96 -831.04 -831.04 -821.953 -821.953 -812.702 -812.702 -803.29 -803.29 -793.718 -793.718 -783.99 -783.99 -774.108 -774.108 -764.074 -764.074 -753.891 -753.891 -743.563 -743.563 -733.09 -733.09 -722.477 -722.477 -711.726 -711.726 -700.84 -700.84 -689.821 -689.821 -678.673 -678.673 -667.399 -667.399 -656.001 -656.001 -644.483 -644.483 -632.848 -632.848 -621.098 -621.098 -609.238 -609.238 -597.269 -597.269 -585.196 -585.196 -573.022 -573.022 -560.749 -560.749 -548.383 -548.383 -535.924 -535.924 -523.379 -523.379 -510.749 -510.749 -498.039 -498.039 -485.252 -485.252 -472.391 -472.391 -459.461 -459.461 -446.466 -446.466 -433.408 -433.408 -420.293 -420.293 -407.123 -407.123 -393.904 -393.904 -380.638 -380.638 -367.33 -367.33 -353.984 -353.984 -340.605 -340.605 -327.197 -327.197 -313.763 -313.763 -300.308 -300.308 -286.838 -286.838 -273.355 -273.355 -259.865 -259.865 -246.373 -246.373 -232.882 -232.882 -219.398 -219.398 -205.925 -205.925 -192.469 -192.469 -179.034 -179.034 -165.624 -165.624 -152.246 -152.246 -138.904 -138.904 -125.604 -125.604 -112.349 -112.349 -99.1469 -99.1469 -86.0015 -86.0015 -72.9186 -72.9186 -59.9035 -59.9035 -46.9619 -46.9619 -34.0993 -34.0993 -21.3214 -21.3214 -8.63389 -8.63389 3.95747 3.95747 16.4468 16.4468 28.8282 28.8282 41.0956 41.0956 53.243 53.243 65.2642 65.2642 77.1531 77.1531 88.9034 88.9034 100.509 100.509 111.963 111.963 123.259 123.259 134.39 134.39 145.351 145.351 156.133 156.133 166.731 166.731 177.138 177.138 187.346 187.346 197.349 197.349 207.139 207.139 216.709 216.709 226.053 226.053 235.162 235.162 244.03 244.03 252.648 252.648 261.01 261.01 269.107 269.107 276.932 276.932 284.477 284.477 291.735 291.735 298.696 298.696 305.354 305.354 311.7 311.7 317.726 317.726 323.423 323.423 328.783 328.783 333.798 333.798 338.458 338.458 342.757 342.757 346.683 346.683 350.23 350.23 353.388 353.388 356.147 356.147 358.5 358.5 360.436 360.436 361.946 361.946 363.022 363.022 363.653 363.653 363.83 363.83 363.544 363.544 362.784 362.784 361.541 361.541 359.806 359.806 357.567 357.567 354.815 354.815 351.541 351.541 347.732 347.732 343.38 343.38 338.473 338.473 333.002 333.002 326.955 326.955 320.322 320.322 313.092 313.092 305.253 305.253 296.796 296.796 287.709 287.709 277.98 277.98 267.598 267.598 256.552 256.552 244.831 244.831 232.422 232.422 219.315 219.315 205.497 205.497 190.955 190.955 175.68 175.68 159.657 159.657 142.876 142.876 125.323 125.323 106.987 106.987 87.8541 87.8541 67.9128 67.9128 47.1499 47.1499 25.5528 25.5528 3.10845 3.10845 -20.196 -20.196 -44.3738 -44.3738 -69.438 -69.438 -95.4021 -95.4021 -122.279 -122.279 -150.083 -150.083 -178.827 -178.827 -208.526 -208.526 -239.192 -239.192 -270.839 -270.839 -303.483 -303.483 -337.136 -337.136 -371.813 -371.813 -407.529 -407.529 -444.297 -444.297 -482.133 -482.133 -521.05 -521.05 -561.065 -561.065 -602.19 -602.19 -644.442 -644.442 -687.835 -687.835 -732.385 -732.385 -778.106 -778.106 -825.014 -825.014 -873.125 -873.125 -922.454 -922.454 -973.016 -973.016 -1024.83 -1024.83 -1077.9 -1077.9 -1132.26 -1132.26 -1187.92 -1187.92 -1244.88 -1244.88 -1303.18 -1303.18 -1362.82 -1362.82 -1423.83 -1423.83 -1486.21 -1486.21 -1549.99 -1549.99 -1615.18 -1615.18 -1681.79 -1681.79 -1749.86 -1749.86 -1819.38 -1819.38 -1890.39 
SCALARS solution_1 double 1
LOOKUP_TABLE default