# vtk DataFile Version 3.0
#This file was generated by the deal.II library on 2020/9/1 at 15:07:29
ASCII
DATASET UNSTRUCTURED_GRID

POINTS 2048 double
1.5 0 0
1.59619 0 0
1.59619 0 0
1.69238 0 0
1.69238 0 0
1.78857 0 0
1.78857 0 0
1.88477 0 0
1.88477 0 0
1.98096 0 0
1.98096 0 0
2.07715 0 0
2.07715 0 0
2.17334 0 0
2.17334 0 0
2.26953 0 0
2.26953 0 0
2.36572 0 0
2.36572 0 0
2.46191 0 0
2.46191 0 0
2.55811 0 0
2.55811 0 0
2.6543 0 0
2.6543 0 0
2.75049 0 0
2.75049 0 0
2.84668 0 0
2.84668 0 0
2.94287 0 0
2.94287 0 0
3.03906 0 0
3.03906 0 0
3.13525 0 0
3.13525 0 0
3.23145 0 0
3.23145 0 0
3.32764 0 0
3.32764 0 0
3.42383 0 0
3.42383 0 0
3.52002 0 0
3.52002 0 0
3.61621 0 0
3.61621 0 0
3.7124 0 0
3.7124 0 0
3.80859 0 0
3.80859 0 0
3.90479 0 0
3.90479 0 0
4.00098 0 0
4.00098 0 0
4.09717 0 0
4.09717 0 0
4.19336 0 0
4.19336 0 0
4.28955 0 0
4.28955 0 0
4.38574 0 0
4.38574 0 0
4.48193 0 0
4.48193 0 0
4.57812 0 0
4.57812 0 0
4.67432 0 0
4.67432 0 0
4.77051 0 0
4.77051 0 0
4.8667 0 0
4.8667 0 0
4.96289 0 0
4.96289 0 0
5.05908 0 0
5.05908 0 0
5.15527 0 0
5.15527 0 0
5.25146 0 0
5.25146 0 0
5.34766 0 0
5.34766 0 0
5.44385 0 0
5.44385 0 0
5.54004 0 0
5.54004 0 0
5.63623 0 0
5.63623 0 0
5.73242 0 0
5.73242 0 0
5.82861 0 0
5.82861 0 0
5.9248 0 0
5.9248 0 0
6.021 0 0
6.021 0 0
6.11719 0 0
6.11719 0 0
6.21338 0 0
6.21338 0 0
6.30957 0 0
6.30957 0 0
6.40576 0 0
6.40576 0 0
6.50195 0 0
6.50195 0 0
6.59814 0 0
6.59814 0 0
6.69434 0 0
6.69434 0 0
6.79053 0 0
6.79053 0 0
6.88672 0 0
6.88672 0 0
6.98291 0 0
6.98291 0 0
7.0791 0 0
7.0791 0 0
7.17529 0 0
7.17529 0 0
7.27148 0 0
7.27148 0 0
7.36768 0 0
7.36768 0 0
7.46387 0 0
7.46387 0 0
7.56006 0 0
7.56006 0 0
7.65625 0 0
7.65625 0 0
7.75244 0 0
7.75244 0 0
7.84863 0 0
7.84863 0 0
7.94482 0 0
7.94482 0 0
8.04102 0 0
8.04102 0 0
8.13721 0 0
8.13721 0 0
8.2334 0 0
8.2334 0 0
8.32959 0 0
8.32959 0 0
8.42578 0 0
8.42578 0 0
8.52197 0 0
8.52197 0 0
8.61816 0 0
8.61816 0 0
8.71436 0 0
8.71436 0 0
8.81055 0 0
8.81055 0 0
8.90674 0 0
8.90674 0 0
9.00293 0 0
9.00293 0 0
9.09912 0 0
9.09912 0 0
9.19531 0 0
9.19531 0 0
9.2915 0 0
9.2915 0 0
9.3877 0 0
9.3877 0 0
9.48389 0 0
9.48389 0 0
9.58008 0 0
9.58008 0 0
9.67627 0 0
9.67627 0 0
9.77246 0 0
9.77246 0 0
9.86865 0 0
9.86865 0 0
9.96484 0 0
9.96484 0 0
10.061 0 0
10.061 0 0
10.1572 0 0
10.1572 0 0
10.2534 0 0
10.2534 0 0
10.3496 0 0
10.3496 0 0
10.4458 0 0
10.4458 0 0
10.542 0 0
10.542 0 0
10.6382 0 0
10.6382 0 0
10.7344 0 0
10.7344 0 0
10.8306 0 0
10.8306 0 0
10.9268 0 0
10.9268 0 0
11.0229 0 0
11.0229 0 0
11.1191 0 0
11.1191 0 0
11.2153 0 0
11.2153 0 0
11.3115 0 0
11.3115 0 0
11.4077 0 0
11.4077 0 0
11.5039 0 0
11.5039 0 0
11.6001 0 0
11.6001 0 0
11.6963 0 0
11.6963 0 0
11.7925 0 0
11.7925 0 0
11.8887 0 0
11.8887 0 0
11.9849 0 0
11.9849 0 0
12.0811 0 0
12.0811 0 0
12.1772 0 0
12.1772 0 0
12.2734 0 0
12.2734 0 0
12.3696 0 0
12.3696 0 0
12.4658 0 0
12.4658 0 0
12.562 0 0
12.562 0 0
12.6582 0 0
12.6582 0 0
12.7544 0 0
12.7544 0 0
12.8506 0 0
12.8506 0 0
12.9468 0 0
12.9468 0 0
13.043 0 0
13.043 0 0
13.1392 0 0
13.1392 0 0
13.2354 0 0
13.2354 0 0
13.3315 0 0
13.3315 0 0
13.4277 0 0
13.4277 0 0
13.5239 0 0
13.5239 0 0
13.6201 0 0
13.6201 0 0
13.7163 0 0
13.7163 0 0
13.8125 0 0
13.8125 0 0
13.9087 0 0
13.9087 0 0
14.0049 0 0
14.0049 0 0
14.1011 0 0
14.1011 0 0
14.1973 0 0
14.1973 0 0
14.2935 0 0
14.2935 0 0
14.3896 0 0
14.3896 0 0
14.4858 0 0
14.4858 0 0
14.582 0 0
14.582 0 0
14.6782 0 0
14.6782 0 0
14.7744 0 0
14.7744 0 0
14.8706 0 0
14.8706 0 0
14.9668 0 0
14.9668 0 0
15.063 0 0
15.063 0 0
15.1592 0 0
15.1592 0 0
15.2554 0 0
15.2554 0 0
15.3516 0 0
15.3516 0 0
15.4478 0 0
15.4478 0 0
15.5439 0 0
15.5439 0 0
15.6401 0 0
15.6401 0 0
15.7363 0 0
15.7363 0 0
15.8325 0 0
15.8325 0 0
15.9287 0 0
15.9287 0 0
16.0249 0 0
16.0249 0 0
16.1211 0 0
16.1211 0 0
16.2173 0 0
16.2173 0 0
16.3135 0 0
16.3135 0 0
16.4097 0 0
16.4097 0 0
16.5059 0 0
16.5059 0 0
16.6021 0 0
16.6021 0 0
16.6982 0 0
16.6982 0 0
16.7944 0 0
16.7944 0 0
16.8906 0 0
16.8906 0 0
16.9868 0 0
16.9868 0 0
17.083 0 0
17.083 0 0
17.1792 0 0
17.1792 0 0
17.2754 0 0
17.2754 0 0
17.3716 0 0
17.3716 0 0
17.4678 0 0
17.4678 0 0
17.564 0 0
17.564 0 0
17.6602 0 0
17.6602 0 0
17.7563 0 0
17.7563 0 0
17.8525 0 0
17.8525 0 0
17.9487 0 0
17.9487 0 0
18.0449 0 0
18.0449 0 0
18.1411 0 0
18.1411 0 0
18.2373 0 0
18.2373 0 0
18.3335 0 0
18.3335 0 0
18.4297 0 0
18.4297 0 0
18.5259 0 0
18.5259 0 0
18.6221 0 0
18.6221 0 0
18.7183 0 0
18.7183 0 0
18.8145 0 0
18.8145 0 0
18.9106 0 0
18.9106 0 0
19.0068 0 0
19.0068 0 0
19.103 0 0
19.103 0 0
19.1992 0 0
19.1992 0 0
19.2954 0 0
19.2954 0 0
19.3916 0 0
19.3916 0 0
19.4878 0 0
19.4878 0 0
19.584 0 0
19.584 0 0
19.6802 0 0
19.6802 0 0
19.7764 0 0
19.7764 0 0
19.8726 0 0
19.8726 0 0
19.9688 0 0
19.9688 0 0
20.0649 0 0
20.0649 0 0
20.1611 0 0
20.1611 0 0
20.2573 0 0
20.2573 0 0
20.3535 0 0
20.3535 0 0
20.4497 0 0
20.4497 0 0
20.5459 0 0
20.5459 0 0
20.6421 0 0
20.6421 0 0
20.7383 0 0
20.7383 0 0
20.8345 0 0
20.8345 0 0
20.9307 0 0
20.9307 0 0
21.0269 0 0
21.0269 0 0
21.123 0 0
21.123 0 0
21.2192 0 0
21.2192 0 0
21.3154 0 0
21.3154 0 0
21.4116 0 0
21.4116 0 0
21.5078 0 0
21.5078 0 0
21.604 0 0
21.604 0 0
21.7002 0 0
21.7002 0 0
21.7964 0 0
21.7964 0 0
21.8926 0 0
21.8926 0 0
21.9888 0 0
21.9888 0 0
22.085 0 0
22.085 0 0
22.1812 0 0
22.1812 0 0
22.2773 0 0
22.2773 0 0
22.3735 0 0
22.3735 0 0
22.4697 0 0
22.4697 0 0
22.5659 0 0
22.5659 0 0
22.6621 0 0
22.6621 0 0
22.7583 0 0
22.7583 0 0
22.8545 0 0
22.8545 0 0
22.9507 0 0
22.9507 0 0
23.0469 0 0
23.0469 0 0
23.1431 0 0
23.1431 0 0
23.2393 0 0
23.2393 0 0
23.3354 0 0
23.3354 0 0
23.4316 0 0
23.4316 0 0
23.5278 0 0
23.5278 0 0
23.624 0 0
23.624 0 0
23.7202 0 0
23.7202 0 0
23.8164 0 0
23.8164 0 0
23.9126 0 0
23.9126 0 0
24.0088 0 0
24.0088 0 0
24.105 0 0
24.105 0 0
24.2012 0 0
24.2012 0 0
24.2974 0 0
24.2974 0 0
24.3936 0 0
24.3936 0 0
24.4897 0 0
24.4897 0 0
24.5859 0 0
24.5859 0 0
24.6821 0 0
24.6821 0 0
24.7783 0 0
24.7783 0 0
24.8745 0 0
24.8745 0 0
24.9707 0 0
24.9707 0 0
25.0669 0 0
25.0669 0 0
25.1631 0 0
25.1631 0 0
25.2593 0 0
25.2593 0 0
25.3555 0 0
25.3555 0 0
25.4517 0 0
25.4517 0 0
25.5479 0 0
25.5479 0 0
25.644 0 0
25.644 0 0
25.7402 0 0
25.7402 0 0
25.8364 0 0
25.8364 0 0
25.9326 0 0
25.9326 0 0
26.0288 0 0
26.0288 0 0
26.125 0 0
26.125 0 0
26.2212 0 0
26.2212 0 0
26.3174 0 0
26.3174 0 0
26.4136 0 0
26.4136 0 0
26.5098 0 0
26.5098 0 0
26.606 0 0
26.606 0 0
26.7021 0 0
26.7021 0 0
26.7983 0 0
26.7983 0 0
26.8945 0 0
26.8945 0 0
26.9907 0 0
26.9907 0 0
27.0869 0 0
27.0869 0 0
27.1831 0 0
27.1831 0 0
27.2793 0 0
27.2793 0 0
27.3755 0 0
27.3755 0 0
27.4717 0 0
27.4717 0 0
27.5679 0 0
27.5679 0 0
27.6641 0 0
27.6641 0 0
27.7603 0 0
27.7603 0 0
27.8564 0 0
27.8564 0 0
27.9526 0 0
27.9526 0 0
28.0488 0 0
28.0488 0 0
28.145 0 0
28.145 0 0
28.2412 0 0
28.2412 0 0
28.3374 0 0
28.3374 0 0
28.4336 0 0
28.4336 0 0
28.5298 0 0
28.5298 0 0
28.626 0 0
28.626 0 0
28.7222 0 0
28.7222 0 0
28.8184 0 0
28.8184 0 0
28.9146 0 0
28.9146 0 0
29.0107 0 0
29.0107 0 0
29.1069 0 0
29.1069 0 0
29.2031 0 0
29.2031 0 0
29.2993 0 0
29.2993 0 0
29.3955 0 0
29.3955 0 0
29.4917 0 0
29.4917 0 0
29.5879 0 0
29.5879 0 0
29.6841 0 0
29.6841 0 0
29.7803 0 0
29.7803 0 0
29.8765 0 0
29.8765 0 0
29.9727 0 0
29.9727 0 0
30.0688 0 0
30.0688 0 0
30.165 0 0
30.165 0 0
30.2612 0 0
30.2612 0 0
30.3574 0 0
30.3574 0 0
30.4536 0 0
30.4536 0 0
30.5498 0 0
30.5498 0 0
30.646 0 0
30.646 0 0
30.7422 0 0
30.7422 0 0
30.8384 0 0
30.8384 0 0
30.9346 0 0
30.9346 0 0
31.0308 0 0
31.0308 0 0
31.127 0 0
31.127 0 0
31.2231 0 0
31.2231 0 0
31.3193 0 0
31.3193 0 0
31.4155 0 0
31.4155 0 0
31.5117 0 0
31.5117 0 0
31.6079 0 0
31.6079 0 0
31.7041 0 0
31.7041 0 0
31.8003 0 0
31.8003 0 0
31.8965 0 0
31.8965 0 0
31.9927 0 0
31.9927 0 0
32.0889 0 0
32.0889 0 0
32.1851 0 0
32.1851 0 0
32.2812 0 0
32.2812 0 0
32.3774 0 0
32.3774 0 0
32.4736 0 0
32.4736 0 0
32.5698 0 0
32.5698 0 0
32.666 0 0
32.666 0 0
32.7622 0 0
32.7622 0 0
32.8584 0 0
32.8584 0 0
32.9546 0 0
32.9546 0 0
33.0508 0 0
33.0508 0 0
33.147 0 0
33.147 0 0
33.2432 0 0
33.2432 0 0
33.3394 0 0
33.3394 0 0
33.4355 0 0
33.4355 0 0
33.5317 0 0
33.5317 0 0
33.6279 0 0
33.6279 0 0
33.7241 0 0
33.7241 0 0
33.8203 0 0
33.8203 0 0
33.9165 0 0
33.9165 0 0
34.0127 0 0
34.0127 0 0
34.1089 0 0
34.1089 0 0
34.2051 0 0
34.2051 0 0
34.3013 0 0
34.3013 0 0
34.3975 0 0
34.3975 0 0
34.4937 0 0
34.4937 0 0
34.5898 0 0
34.5898 0 0
34.686 0 0
34.686 0 0
34.7822 0 0
34.7822 0 0
34.8784 0 0
34.8784 0 0
34.9746 0 0
34.9746 0 0
35.0708 0 0
35.0708 0 0
35.167 0 0
35.167 0 0
35.2632 0 0
35.2632 0 0
35.3594 0 0
35.3594 0 0
35.4556 0 0
35.4556 0 0
35.5518 0 0
35.5518 0 0
35.6479 0 0
35.6479 0 0
35.7441 0 0
35.7441 0 0
35.8403 0 0
35.8403 0 0
35.9365 0 0
35.9365 0 0
36.0327 0 0
36.0327 0 0
36.1289 0 0
36.1289 0 0
36.2251 0 0
36.2251 0 0
36.3213 0 0
36.3213 0 0
36.4175 0 0
36.4175 0 0
36.5137 0 0
36.5137 0 0
36.6099 0 0
36.6099 0 0
36.7061 0 0
36.7061 0 0
36.8022 0 0
36.8022 0 0
36.8984 0 0
36.8984 0 0
36.9946 0 0
36.9946 0 0
37.0908 0 0
37.0908 0 0
37.187 0 0
37.187 0 0
37.2832 0 0
37.2832 0 0
37.3794 0 0
37.3794 0 0
37.4756 0 0
37.4756 0 0
37.5718 0 0
37.5718 0 0
37.668 0 0
37.668 0 0
37.7642 0 0
37.7642 0 0
37.8604 0 0
37.8604 0 0
37.9565 0 0
37.9565 0 0
38.0527 0 0
38.0527 0 0
38.1489 0 0
38.1489 0 0
38.2451 0 0
38.2451 0 0
38.3413 0 0
38.3413 0 0
38.4375 0 0
38.4375 0 0
38.5337 0 0
38.5337 0 0
38.6299 0 0
38.6299 0 0
38.7261 0 0
38.7261 0 0
38.8223 0 0
38.8223 0 0
38.9185 0 0
38.9185 0 0
39.0146 0 0
39.0146 0 0
39.1108 0 0
39.1108 0 0
39.207 0 0
39.207 0 0
39.3032 0 0
39.3032 0 0
39.3994 0 0
39.3994 0 0
39.4956 0 0
39.4956 0 0
39.5918 0 0
39.5918 0 0
39.688 0 0
39.688 0 0
39.7842 0 0
39.7842 0 0
39.8804 0 0
39.8804 0 0
39.9766 0 0
39.9766 0 0
40.0728 0 0
40.0728 0 0
40.1689 0 0
40.1689 0 0
40.2651 0 0
40.2651 0 0
40.3613 0 0
40.3613 0 0
40.4575 0 0
40.4575 0 0
40.5537 0 0
40.5537 0 0
40.6499 0 0
40.6499 0 0
40.7461 0 0
40.7461 0 0
40.8423 0 0
40.8423 0 0
40.9385 0 0
40.9385 0 0
41.0347 0 0
41.0347 0 0
41.1309 0 0
41.1309 0 0
41.2271 0 0
41.2271 0 0
[...]
POINT_DATA 2048
SCALARS solution_0 double 1
LOOKUP_TABLE default
5.36629e+07 5.34362e+07 5.34362e+07 5.33839e+07 5.33839e+07 5.34683e+07 5.34683e+07 5.36598e+07 5.36598e+07 5.39351e+07 5.39351e+07 5.42756e+07 5.42756e+07 5.46667e+07 5.46667e+07 5.50965e+07 5.50965e+07 5.55554e+07 5.55554e+07 5.60358e+07 5.60358e+07 5.65313e+07 5.65313e+07 5.70369e+07 5.70369e+07 5.75485e+07 5.75485e+07 5.80624e+07 5.80624e+07 5.85761e+07 5.85761e+07 5.9087e+07 5.9087e+07 5.95934e+07 5.95934e+07 6.00937e+07 6.00937e+07 6.05866e+07 6.05866e+07 6.10711e+07 6.10711e+07 6.15462e+07 6.15462e+07 6.20113e+07 6.20113e+07 6.24659e+07 6.24659e+07 6.29095e+07 6.29095e+07 6.33417e+07 6.33417e+07 6.37624e+07 6.37624e+07 6.41713e+07 6.41713e+07 6.45682e+07 6.45682e+07 6.49531e+07 6.49531e+07 6.53259e+07 6.53259e+07 6.56867e+07 6.56867e+07 6.60353e+07 6.60353e+07 6.6372e+07 6.6372e+07 6.66967e+07 6.66967e+07 6.70096e+07 6.70096e+07 6.73106e+07 6.73106e+07 6.76e+07 6.76e+07 6.78779e+07 6.78779e+07 6.81443e+07 6.81443e+07 6.83995e+07 6.83995e+07 6.86435e+07 6.86435e+07 6.88766e+07 6.88766e+07 6.90988e+07 6.90988e+07 6.93103e+07 6.93103e+07 6.95113e+07 6.95113e+07 6.9702e+07 6.9702e+07 6.98824e+07 6.98824e+07 7.00528e+07 7.00528e+07 7.02133e+07 7.02133e+07 7.0364e+07 7.0364e+07 7.05052e+07 7.05052e+07 7.0637e+07 7.0637e+07 7.07596e+07 7.07596e+07 7.0873e+07 7.0873e+07 7.09775e+07 7.09775e+07 7.10732e+07 7.10732e+07 7.11603e+07 7.11603e+07 7.12389e+07 7.12389e+07 7.13091e+07 7.13091e+07 7.13712e+07 7.13712e+07 7.14252e+07 7.14252e+07 7.14714e+07 7.14714e+07 7.15097e+07 7.15097e+07 7.15405e+07 7.15405e+07 7.15637e+07 7.15637e+07 7.15797e+07 7.15797e+07 7.15884e+07 7.15884e+07 7.159e+07 7.159e+07 7.15847e+07 7.15847e+07 7.15726e+07 7.15726e+07 7.15538e+07 7.15538e+07 7.15284e+07 7.15284e+07 7.14965e+07 7.14965e+07 7.14584e+07 7.14584e+07 7.1414e+07 7.1414e+07 7.13636e+07 7.13636e+07 7.13071e+07 7.13071e+07 7.12449e+07 7.12449e+07 7.11768e+07 7.11768e+07 7.11032e+07 7.11032e+07 7.1024e+07 7.1024e+07 7.09394e+07 7.09394e+07 7.08495e+07 7.08495e+07 7.07544e+07 7.07544e+07 7.06541e+07 7.06541e+07 7.05489e+07 7.05489e+07 7.04388e+07 7.04388e+07 7.03238e+07 7.03238e+07 7.02042e+07 7.02042e+07 7.00799e+07 7.00799e+07 6.99511e+07 6.99511e+07 6.98179e+07 6.98179e+07 6.96803e+07 6.96803e+07 6.95385e+07 6.95385e+07 6.93926e+07 6.93926e+07 6.92425e+07 6.92425e+07 6.90885e+07 6.90885e+07 6.89306e+07 6.89306e+07 6.87688e+07 6.87688e+07 6.86033e+07 6.86033e+07 6.84342e+07 6.84342e+07 6.82614e+07 6.82614e+07 6.80852e+07 6.80852e+07 6.79055e+07 6.79055e+07 6.77226e+07 6.77226e+07 6.75363e+07 6.75363e+07 6.73468e+07 6.73468e+07 6.71542e+07 6.71542e+07 6.69586e+07 6.69586e+07 6.676e+07 6.676e+07 6.65584e+07 6.65584e+07 6.6354e+07 6.6354e+07 6.61469e+07 6.61469e+07 6.5937e+07 6.5937e+07 6.57245e+07 6.57245e+07 6.55094e+07 6.55094e+07 6.52918e+07 6.52918e+07 6.50717e+07 6.50717e+07 6.48493e+07 6.48493e+07 6.46245e+07 6.46245e+07 6.43975e+07 6.43975e+07 6.41682e+07 6.41682e+07 6.39368e+07 6.39368e+07 6.37033e+07 6.37033e+07 6.34677e+07 6.34677e+07 6.32302e+07 6.32302e+07 6.29908e+07 6.29908e+07 6.27495e+07 6.27495e+07 6.25063e+07 6.25063e+07 6.22614e+07 6.22614e+07 6.20148e+07 6.20148e+07 6.17665e+07 6.17665e+07 6.15167e+07 6.15167e+07 6.12652e+07 6.12652e+07 6.10123e+07 6.10123e+07 6.07578e+07 6.07578e+07 6.0502e+07 6.0502e+07 6.02448e+07 6.02448e+07 5.99863e+07 5.99863e+07 5.97265e+07 5.97265e+07 5.94654e+07 5.94654e+07 5.92032e+07 5.92032e+07 5.89398e+07 5.89398e+07 5.86753e+07 5.86753e+07 5.84098e+07 5.84098e+07 5.81433e+07 5.81433e+07 5.78757e+07 5.78757e+07 5.76073e+07 5.76073e+07 5.73379e+07 5.73379e+07 5.70677e+07 5.70677e+07 5.67967e+07 5.67967e+07 5.65248e+07 5.65248e+07 5.62523e+07 5.62523e+07 5.5979e+07 5.5979e+07 5.57051e+07 5.57051e+07 5.54305e+07 5.54305e+07 5.51553e+07 5.51553e+07 5.48796e+07 5.48796e+07 5.46033e+07 5.46033e+07 5.43266e+07 5.43266e+07 5.40493e+07 5.40493e+07 5.37717e+07 5.37717e+07 5.34936e+07 5.34936e+07 5.32152e+07 5.32152e+07 5.29364e+07 5.29364e+07 5.26574e+07 5.26574e+07 5.2378e+07 5.2378e+07 5.20984e+07 5.20984e+07 5.18186e+07 5.18186e+07 5.15386e+07 5.15386e+07 5.12585e+07 5.12585e+07 5.09782e+07 5.09782e+07 5.06978e+07 5.06978e+07 5.04173e+07 5.04173e+07 5.01368e+07 5.01368e+07 4.98562e+07 4.98562e+07 4.95757e+07 4.95757e+07 4.92951e+07 4.92951e+07 4.90147e+07 4.90147e+07 4.87342e+07 4.87342e+07 4.84539e+07 4.84539e+07 4.81737e+07 4.81737e+07 4.78937e+07 4.78937e+07 4.76138e+07 4.76138e+07 4.73341e+07 4.73341e+07 4.70546e+07 4.70546e+07 4.67754e+07 4.67754e+07 4.64964e+07 4.64964e+07 4.62176e+07 4.62176e+07 4.59392e+07 4.59392e+07 4.56611e+07 4.56611e+07 4.53833e+07 4.53833e+07 4.51058e+07 4.51058e+07 4.48288e+07 4.48288e+07 4.45521e+07 4.45521e+07 4.42758e+07 4.42758e+07 4.39999e+07 4.39999e+07 4.37245e+07 4.37245e+07 4.34496e+07 4.34496e+07 4.31751e+07 4.31751e+07 4.29011e+07 4.29011e+07 4.26277e+07 4.26277e+07 4.23547e+07 4.23547e+07 4.20823e+07 4.20823e+07 4.18105e+07 4.18105e+07 4.15392e+07 4.15392e+07 4.12685e+07 4.12685e+07 4.09984e+07 4.09984e+07 4.07289e+07 4.07289e+07 4.04601e+07 4.04601e+07 4.01919e+07 4.01919e+07 3.99243e+07 3.99243e+07 3.96574e+07 3.96574e+07 3.93912e+07 3.93912e+07 3.91257e+07 3.91257e+07 3.88609e+07 3.88609e+07 3.85968e+07 3.85968e+07 3.83334e+07 3.83334e+07 3.80707e+07 3.80707e+07 3.78089e+07 3.78089e+07 3.75477e+07 3.75477e+07 3.72874e+07 3.72874e+07 3.70278e+07 3.70278e+07 3.6769e+07 3.6769e+07 3.6511e+07 3.6511e+07 3.62539e+07 3.62539e+07 3.59975e+07 3.59975e+07 3.5742e+07 3.5742e+07 3.54873e+07 3.54873e+07 3.52334e+07 3.52334e+07 3.49805e+07 3.49805e+07 3.47283e+07 3.47283e+07 3.44771e+07 3.44771e+07 3.42267e+07 3.42267e+07 3.39772e+07 3.39772e+07 3.37286e+07 3.37286e+07 3.34809e+07 3.34809e+07 3.32341e+07 3.32341e+07 3.29883e+07 3.29883e+07 3.27433e+07 3.27433e+07 3.24993e+07 3.24993e+07 3.22562e+07 3.22562e+07 3.2014e+07 3.2014e+07 3.17728e+07 3.17728e+07 3.15325e+07 3.15325e+07 3.12932e+07 3.12932e+07 3.10549e+07 3.10549e+07 3.08175e+07 3.08175e+07 3.05811e+07 3.05811e+07 3.03457e+07 3.03457e+07 3.01112e+07 3.01112e+07 2.98777e+07 2.98777e+07 2.96452e+07 2.96452e+07 2.94138e+07 2.94138e+07 2.91833e+07 2.91833e+07 2.89538e+07 2.89538e+07 2.87253e+07 2.87253e+07 2.84978e+07 2.84978e+07 2.82713e+07 2.82713e+07 2.80458e+07 2.80458e+07 2.78214e+07 2.78214e+07 2.7598e+07 2.7598e+07 2.73755e+07 2.73755e+07 2.71542e+07 2.71542e+07 2.69338e+07 2.69338e+07 2.67145e+07 2.67145e+07 2.64962e+07 2.64962e+07 2.62789e+07 2.62789e+07 2.60626e+07 2.60626e+07 2.58474e+07 2.58474e+07 2.56333e+07 2.56333e+07 2.54202e+07 2.54202e+07 2.52081e+07 2.52081e+07 2.4997e+07 2.4997e+07 2.4787e+07 2.4787e+07 2.45781e+07 2.45781e+07 2.43701e+07 2.43701e+07 2.41633e+07 2.41633e+07 2.39574e+07 2.39574e+07 2.37526e+07 2.37526e+07 2.35489e+07 2.35489e+07 2.33462e+07 2.33462e+07 2.31446e+07 2.31446e+07 2.2944e+07 2.2944e+07 2.27444e+07 2.27444e+07 2.25459e+07 2.25459e+07 2.23485e+07 2.23485e+07 2.21521e+07 2.21521e+07 2.19567e+07 2.19567e+07 2.17624e+07 2.17624e+07 2.15691e+07 2.15691e+07 2.13769e+07 2.13769e+07 2.11857e+07 2.11857e+07 2.09955e+07 2.09955e+07 2.08064e+07 2.08064e+07 2.06183e+07 2.06183e+07 2.04313e+07 2.04313e+07 2.02453e+07 2.02453e+07 2.00604e+07 2.00604e+07 1.98764e+07 1.98764e+07 1.96936e+07 1.96936e+07 1.95117e+07 1.95117e+07 1.93309e+07 1.93309e+07 1.91511e+07 1.91511e+07 1.89723e+07 1.89723e+07 1.87946e+07 1.87946e+07 1.86178e+07 1.86178e+07 1.84421e+07 1.84421e+07 1.82675e+07 1.82675e+07 1.80938e+07 1.80938e+07 1.79212e+07 1.79212e+07 1.77495e+07 1.77495e+07 1.75789e+07 1.75789e+07 1.74093e+07 1.74093e+07 1.72407e+07 1.72407e+07 1.70731e+07 1.70731e+07 1.69065e+07 1.69065e+07 1.67409e+07 1.67409e+07 1.65763e+07 1.65763e+07 1.64127e+07 1.64127e+07 1.625e+07 1.625e+07 1.60884e+07 1.60884e+07 1.59277e+07 1.59277e+07 1.57681e+07 1.57681e+07 1.56094e+07 1.56094e+07 1.54517e+07 1.54517e+07 1.52949e+07 1.52949e+07 1.51392e+07 1.51392e+07 1.49844e+07 1.49844e+07 1.48306e+07 1.48306e+07 1.46777e+07 1.46777e+07 1.45258e+07 1.45258e+07 1.43748e+07 1.43748e+07 1.42248e+07 1.42248e+07 1.40757e+07 1.40757e+07 1.39276e+07 1.39276e+07 1.37805e+07 1.37805e+07 1.36342e+07 1.36342e+07 1.34889e+07 1.34889e+07 1.33446e+07 1.33446e+07 1.32011e+07 1.32011e+07 1.30586e+07 1.30586e+07 1.2917e+07 1.2917e+07 1.27764e+07 1.27764e+07 1.26366e+07 1.26366e+07 1.24977e+07 1.24977e+07 1.23598e+07 1.23598e+07 1.22228e+07 1.22228e+07 1.20866e+07 1.20866e+07 1.19514e+07 1.19514e+07 1.1817e+07 1.1817e+07 1.16836e+07 1.16836e+07 1.1551e+07 1.1551e+07 1.14193e+07 1.14193e+07 1.12885e+07 1.12885e+07 1.11585e+07 1.11585e+07 1.10294e+07 1.10294e+07 1.09012e+07 1.09012e+07 1.07739e+07 1.07739e+07 1.06474e+07 1.06474e+07 1.05217e+07 1.05217e+07 1.03969e+07 1.03969e+07 1.0273e+07 1.0273e+07 1.01499e+07 1.01499e+07 1.00276e+07 1.00276e+07 9.90614e+06 9.90614e+06 9.78553e+06 9.78553e+06 9.66575e+06 9.66575e+06 9.54678e+06 9.54678e+06 9.42864e+06 9.42864e+06 9.31131e+06 9.31131e+06 9.19478e+06 9.19478e+06 9.07907e+06 9.07907e+06 8.96415e+06 8.96415e+06 8.85003e+06 8.85003e+06 8.7367e+06 8.7367e+06 8.62417e+06 8.62417e+06 8.51241e+06 8.51241e+06 8.40144e+06 8.40144e+06 8.29124e+06 8.29124e+06 8.18182e+06 8.18182e+06 8.07316e+06 8.07316e+06 7.96527e+06 7.96527e+06 7.85814e+06 7.85814e+06 7.75176e+06 7.75176e+06 7.64614e+06 7.64614e+06 7.54126e+06 7.54126e+06 7.43712e+06 7.43712e+06 7.33373e+06 7.33373e+06 7.23107e+06 7.23107e+06 7.12914e+06 7.12914e+06 7.02794e+06 7.02794e+06 6.92746e+06 6.92746e+06 6.8277e+06 6.8277e+06 6.72866e+06 6.72866e+06 6.63032e+06 6.63032e+06 6.53269e+06 6.53269e+06 6.43576e+06 6.43576e+06 6.33953e+06 6.33953e+06 6.244e+06 6.244e+06 6.14915e+06 6.14915e+06 6.05499e+06 6.05499e+06 5.96152e+06 5.96152e+06 5.86872e+06 5.86872e+06 5.77659e+06 5.77659e+06 5.68513e+06 5.68513e+06 5.59434e+06 5.59434e+06 5.50421e+06 5.50421e+06 5.41473e+06 5.41473e+06 5.32591e+06 5.32591e+06 5.23774e+06 5.23774e+06 5.15021e+06 5.15021e+06 5.06333e+06 5.06333e+06 4.97708e+06 4.97708e+06 4.89146e+06 4.89146e+06 4.80647e+06 4.80647e+06 4.72211e+06 4.72211e+06 4.63837e+06 4.63837e+06 4.55524e+06 4.55524e+06 4.47273e+06 4.47273e+06 4.39083e+06 4.39083e+06 4.30953e+06 4.30953e+06 4.22884e+06 4.22884e+06 4.14874e+06 4.14874e+06 4.06924e+06 4.06924e+06 3.99032e+06 3.99032e+06 3.91199e+06 3.91199e+06 3.83424e+06 3.83424e+06 3.75707e+06 3.75707e+06 3.68047e+06 3.68047e+06 3.60445e+06 3.60445e+06 3.52899e+06 3.52899e+06 3.45409e+06 3.45409e+06 3.37975e+06 3.37975e+06 3.30597e+06 3.30597e+06 3.23273e+06 3.23273e+06 3.16005e+06 3.16005e+06 3.08791e+06 3.08791e+06 3.0163e+06 3.0163e+06 2.94524e+06 2.94524e+06 2.8747e+06 2.8747e+06 2.8047e+06 2.8047e+06 2.73522e+06 2.73522e+06 2.66626e+06 2.66626e+06 2.59782e+06 2.59782e+06 2.52989e+06 2.52989e+06 2.46248e+06 2.46248e+06 2.39557e+06 2.39557e+06 2.32916e+06 2.32916e+06 2.26325e+06 2.26325e+06 2.19784e+06 2.19784e+06 2.13292e+06 2.13292e+06 2.0685e+06 2.0685e+06 2.00455e+06 2.00455e+06 1.94109e+06 1.94109e+06 1.87811e+06 1.87811e+06 1.8156e+06 1.8156e+06 1.75356e+06 1.75356e+06 1.692e+06 1.692e+06 1.63089e+06 1.63089e+06 1.57025e+06 1.57025e+06 1.51006e+06 1.51006e+06 1.45034e+06 1.45034e+06 1.39106e+06 1.39106e+06 1.33223e+06 1.33223e+06 1.27384e+06 1.27384e+06 1.21589e+06 1.21589e+06 1.15839e+06 1.15839e+06 1.10131e+06 1.10131e+06 1.04467e+06 1.04467e+06 988458 988458 932669 932669 877302 877302 822353 822353 767820 767820 713698 713698 659986 659986 606679 606679 553775 553775 501271 501271 449163 449163 397448 397448 346124 346124 295187 295187 244635 244635 194464 194464 144671 144671 95254.1 95254.1 46209.4 46209.4 -2465.85 -2465.85 -50774.4 -50774.4 -98719.3 -98719.3 -146303 -146303 -193529 -193529 -240400 -240400 -286918 -286918 -333087 -333087 -378910 -378910 -424388 -424388 -469525 -469525 -514323 -514323 -558786 -558786 -602916 -602916 -646715 -646715 -690187 -690187 -733334 -733334 -776158 -776158 -818663 -818663 -860850 -860850 -902723 -902723 -944284 -944284 -985535 -985535 -1.02648e+06 -1.02648e+06 -1.06712e+06 -1.06712e+06 -1.10746e+06 -1.10746e+06 -1.1475e+06 -1.1475e+06 -1.18724e+06 -1.18724e+06 -1.22669e+06 -1.22669e+06 -1.26584e+06 -1.26584e+06 -1.30471e+06 -1.30471e+06 -1.34329e+06 -1.34329e+06 -1.38158e+06 -1.38158e+06 -1.41959e+06 -1.41959e+06 -1.45732e+06 -1.45732e+06 -1.49478e+06 -1.49478e+06 -1.53195e+06 -1.53195e+06 -1.56886e+06 -1.56886e+06 -1.60549e+06 -1.60549e+06 -1.64186e+06 -1.64186e+06 -1.67796e+06 -1.67796e+06 -1.71379e+06 -1.71379e+06 -1.74937e+06 -1.74937e+06 -1.78468e+06 -1.78468e+06 -1.81974e+06 -1.81974e+06 -1.85454e+06 -1.85454e+06 -1.88908e+06 -1.88908e+06 -1.92338e+06 -1.92338e+06 -1.95743e+06 -1.95743e+06 -1.99123e+06 -1.99123e+06 -2.02479e+06 -2.02479e+06 -2.0581e+06 -2.0581e+06 -2.09117e+06 -2.09117e+06 -2.12401e+06 -2.12401e+06 -2.15661e+06 -2.15661e+06 -2.18897e+06 -2.18897e+06 -2.22111e+06 -2.22111e+06 -2.25301e+06 -2.25301e+06 -2.28468e+06 -2.28468e+06 -2.31613e+06 -2.31613e+06 -2.34735e+06 -2.34735e+06 -2.37835e+06 -2.37835e+06 -2.40913e+06 -2.40913e+06 -2.43969e+06 -2.43969e+06 -2.47003e+06 -2.47003e+06 -2.50016e+06 -2.50016e+06 -2.53008e+06 -2.53008e+06 -2.55978e+06 -2.55978e+06 -2.58928e+06 -2.58928e+06 -2.61856e+06 -2.61856e+06 -2.64765e+06 -2.64765e+06 -2.67652e+06 -2.67652e+06 -2.7052e+06 -2.7052e+06 -2.73367e+06 -2.73367e+06 -2.76195e+06 -2.76195e+06 -2.79002e+06 -2.79002e+06 -2.81791e+06 -2.81791e+06 -2.8456e+06 -2.8456e+06 -2.87309e+06 -2.87309e+06 -2.9004e+06 -2.9004e+06 -2.92752e+06 -2.92752e+06 -2.95445e+06 -2.95445e+06 -2.9812e+06 -2.9812e+06 -3.00776e+06 -3.00776e+06 -3.03414e+06 -3.03414e+06 -3.06033e+06 -3.06033e+06 -3.08635e+06 -3.08635e+06 -3.1122e+06 -3.1122e+06 -3.13786e+06 -3.13786e+06 -3.16335e+06 -3.16335e+06 -3.18867e+06 -3.18867e+06 -3.21382e+06 -3.21382e+06 -3.2388e+06 -3.2388e+06 -3.2636e+06 -3.2636e+06 -3.28825e+06 -3.28825e+06 -3.31272e+06 -3.31272e+06 -3.33703e+06 -3.33703e+06 -3.36118e+06 -3.36118e+06 -3.38517e+06 -3.38517e+06 -3.409e+06 -3.409e+06 -3.43267e+06 -3.43267e+06 -3.45618e+06 -3.45618e+06 -3.47953e+06 -3.47953e+06 -3.50274e+06 -3.50274e+06 -3.52578e+06 -3.52578e+06 -3.54868e+06 -3.54868e+06 -3.57143e+06 -3.57143e+06 -3.59402e+06 -3.59402e+06 -3.61647e+06 -3.61647e+06 -3.63877e+06 -3.63877e+06 -3.66093e+06 -3.66093e+06 -3.68294e+06 -3.68294e+06 -3.70481e+06 -3.70481e+06 -3.72654e+06 -3.72654e+06 -3.74813e+06 -3.74813e+06 -3.76957e+06 -3.76957e+06 -3.79088e+06 -3.79088e+06 -3.81205e+06 -3.81205e+06 -3.83309e+06 -3.83309e+06 -3.85399e+06 -3.85399e+06 -3.87476e+06 -3.87476e+06 -3.8954e+06 -3.8954e+06 -3.9159e+06 -3.9159e+06 -3.93628e+06 -3.93628e+06 -3.95652e+06 -3.95652e+06 -3.97664e+06 -3.97664e+06 -3.99663e+06 -3.99663e+06 -4.01649e+06 -4.01649e+06 -4.03623e+06 -4.03623e+06 -4.05584e+06 -4.05584e+06 -4.07534e+06 -4.07534e+06 -4.09471e+06 -4.09471e+06 -4.11396e+06 -4.11396e+06 -4.13309e+06 -4.13309e+06 -4.1521e+06 -4.1521e+06 -4.17099e+06 -4.17099e+06 -4.18976e+06 -4.18976e+06 -4.20842e+06 -4.20842e+06 -4.22697e+06 -4.22697e+06 -4.2454e+06 -4.2454e+06 -4.26372e+06 -4.26372e+06 -4.28192e+06 -4.28192e+06 -4.30001e+06 -4.30001e+06 -4.31799e+06 -4.31799e+06 -4.33587e+06 -4.33587e+06 -4.35363e+06 -4.35363e+06 -4.37129e+06 -4.37129e+06 -4.38883e+06 -4.38883e+06 -4.40628e+06 -4.40628e+06 -4.42361e+06 -4.42361e+06 -4.44084e+06 -4.44084e+06 -4.45797e+06 -4.45797e+06 -4.47499e+06 -4.47499e+06 -4.49191e+06 -4.49191e+06 -4.50873e+06 -4.50873e+06 -4.52545e+06 -4.52545e+06 -4.54207e+06 -4.54207e+06 -4.55859e+06 -4.55859e+06 -4.57501e+06 -4.57501e+06 -4.59133e+06 -4.59133e+06 -4.60756e+06 -4.60756e+06 -4.62368e+06 -4.62368e+06 -4.63972e+06 -4.63972e+06 -4.65565e+06 -4.65565e+06 -4.67149e+06 -4.67149e+06 -4.68724e+06 -4.68724e+06 -4.7029e+06 -4.7029e+06 -4.71846e+06 -4.71846e+06 -4.73393e+06 -4.73393e+06 -4.7493e+06 -4.7493e+06 -4.76459e+06 -4.76459e+06 -4.77979e+06 -4.77979e+06 -4.79489e+06 -4.79489e+06 -4.80991e+06 -4.80991e+06 -4.82484e+06 -4.82484e+06 -4.83968e+06 -4.83968e+06 -4.85443e+06 -4.85443e+06 -4.8691e+06 -4.8691e+06 -4.88368e+06 -4.88368e+06 -4.89817e+06 -4.89817e+06 -4.91258e+06 -4.91258e+06 -4.9269e+06 -4.9269e+06 -4.94114e+06 -4.94114e+06 -4.95529e+06 -4.95529e+06 -4.96936e+06 -4.96936e+06 -4.98335e+06 -4.98335e+06 -4.99726e+06 -4.99726e+06 -5.01108e+06 -5.01108e+06 -5.02482e+06 -5.02482e+06 -5.03848e+06 -5.03848e+06 -5.05206e+06 -5.05206e+06 -5.06555e+06 -5.06555e+06 -5.07897e+06 -5.07897e+06 -5.09231e+06 -5.09231e+06 -5.10557e+06 -5.10557e+06 -5.11875e+06 -5.11875e+06 -5.13185e+06 -5.13185e+06 -5.14487e+06 -5.14487e+06 -5.15781e+06 -5.15781e+06 -5.17068e+06 -5.17068e+06 -5.18347e+06 -5.18347e+06 -5.19618e+06 -5.19618e+06 -5.20882e+06 -5.20882e+06 -5.22138e+06 -5.22138e+06 -5.23386e+06 -5.23386e+06 -5.24627e+06 -5.24627e+06 -5.2586e+06 -5.2586e+06 -5.27085e+06 -5.27085e+06 -5.28303e+06 -5.28303e+06 -5.29514e+06 -5.29514e+06 -5.30717e+06 -5.30717e+06 -5.31913e+06 -5.31913e+06 -5.33101e+06 -5.33101e+06 -5.34282e+06 -5.34282e+06 -5.35456e+06 -5.35456e+06 -5.36622e+06 -5.36622e+06 -5.3778e+06 -5.3778e+06 -5.38932e+06 -5.38932e+06 -5.40076e+06 -5.40076e+06 -5.41213e+06 -5.41213e+06 -5.42343e+06 -5.42343e+06 -5.43465e+06 -5.43465e+06 -5.4458e+06 -5.4458e+06 -5.45688e+06 -5.45688e+06 -5.46788e+06 -5.46788e+06 -5.47882e+06 -5.47882e+06 -5.48968e+06 -5.48968e+06 -5.50047e+06 -5.50047e+06 -5.51119e+06 -5.51119e+06 -5.52184e+06 -5.52184e+06 -5.53241e+06 -5.53241e+06 -5.54291e+06 -5.54291e+06 -5.55334e+06 -5.55334e+06 -5.5637e+06 -5.5637e+06 -5.57399e+06 -5.57399e+06 -5.58421e+06 -5.58421e+06 -5.59435e+06 -5.59435e+06 -5.60443e+06 -5.60443e+06 -5.61443e+06 -5.61443e+06 -5.62436e+06 -5.62436e+06 -5.63422e+06 -5.63422e+06 -5.64401e+06 -5.64401e+06 -5.65372e+06 -5.65372e+06 -5.66337e+06 -5.66337e+06 -5.67294e+06 -5.67294e+06 -5.68244e+06 -5.68244e+06 -5.69187e+06 -5.69187e+06 -5.70122e+06 -5.70122e+06 -5.71051e+06 -5.71051e+06 -5.71972e+06 -5.71972e+06 -5.72886e+06 -5.72886e+06 -5.73793e+06 -5.73793e+06 -5.74692e+06 -5.74692e+06 -5.75585e+06 -5.75585e+06 -5.7647e+06 -5.7647e+06 -5.77347e+06 -5.77347e+06 -5.78218e+06 -5.78218e+06 -5.79081e+06 -5.79081e+06 -5.79937e+06 -5.79937e+06 -5.80785e+06 -5.80785e+06 -5.81626e+06 -5.81626e+06 -5.8246e+06 -5.8246e+06 -5.83286e+06 -5.83286e+06 -5.84105e+06 -5.84105e+06 -5.84916e+06 -5.84916e+06 -5.8572e+06 -5.8572e+06 -5.86517e+06 -5.86517e+06 -5.87306e+06 -5.87306e+06 -5.88087e+06 -5.88087e+06 -5.88861e+06 -5.88861e+06 -5.89627e+06 -5.89627e+06 -5.90385e+06 -5.90385e+06 -5.91136e+06 -5.91136e+06 -5.9188e+06 -5.9188e+06 -5.92615e+06 -5.92615e+06 -5.93343e+06 -5.93343e+06 -5.94063e+06 -5.94063e+06 -5.94775e+06 -5.94775e+06 -5.95479e+06 -5.95479e+06 -5.96176e+06 -5.96176e+06 -5.96864e+06 -5.96864e+06 -5.97545e+06 -5.97545e+06 -5.98218e+06 -5.98218e+06 -5.98882e+06 -5.98882e+06 -5.99539e+06 -5.99539e+06 -6.00188e+06 -6.00188e+06 -6.00828e+06 -6.00828e+06 -6.0146e+06 -6.0146e+06 -6.02084e+06 -6.02084e+06 -6.027e+06 -6.027e+06 -6.03308e+06 -6.03308e+06 -6.03907e+06 -6.03907e+06 -6.04498e+06 -6.04498e+06 -6.0508e+06 -6.0508e+06 -6.05654e+06 -6.05654e+06 -6.06219e+06 -6.06219e+06 -6.06776e+06 -6.06776e+06 -6.07324e+06 -6.07324e+06 -6.07864e+06 -6.07864e+06 -6.08395e+06 -6.08395e+06 -6.08917e+06 -6.08917e+06 -6.0943e+06 -6.0943e+06 -6.09935e+06 -6.09935e+06 -6.1043e+06 -6.1043e+06 -6.10917e+06 -6.10917e+06 -6.11394e+06 -6.11394e+06 -6.11863e+06 -6.11863e+06 -6.12322e+06 -6.12322e+06 -6.12772e+06 -6.12772e+06 -6.13213e+06 -6.13213e+06 -6.13645e+06 -6.13645e+06 -6.14067e+06 -6.14067e+06 -6.1448e+06 -6.1448e+06 -6.14884e+06 -6.14884e+06 -6.15278e+06 -6.15278e+06 -6.15662e+06 -6.15662e+06 -6.16036e+06 -6.16036e+06 -6.16401e+06 -6.16401e+06 -6.16757e+06 -6.16757e+06 -6.17102e+06 -6.17102e+06 -6.17437e+06 -6.17437e+06 -6.17763e+06 -6.17763e+06 -6.18078e+06 -6.18078e+06 -6.18383e+06 -6.18383e+06 -6.18679e+06 -6.18679e+06 -6.18963e+06 -6.18963e+06 -6.19238e+06 -6.19238e+06 -6.19502e+06 -6.19502e+06 -6.19756e+06 -6.19756e+06 -6.19999e+06 -6.19999e+06 -6.20232e+06 -6.20232e+06 -6.20454e+06 -6.20454e+06 -6.20665e+06 -6.20665e+06 -6.20865e+06 -6.20865e+06 -6.21055e+06 -6.21055e+06 -6.21233e+06 -6.21233e+06 -6.21401e+06 -6.214