# vtk DataFile Version 3.0
#This file was generated by the deal.II library on 2020/9/1 at 15:07:44
ASCII
DATASET UNSTRUCTURED_GRID

POINTS 2048 double
1.5 0 0
1.59619 0 0
1.59619 0 0
1.69238 0 0
1.69238 0 0
1.78857 0 0
1.78857 0 0
1.88477 0 0
1.88477 0 0
1.98096 0 0
1.98096 0 0
2.07715 0 0
2.07715 0 0
2.17334 0 0
2.17334 0 0
2.26953 0 0
2.26953 0 0
2.36572 0 0
2.36572 0 0
2.46191 0 0
2.46191 0 0
2.55811 0 0
2.55811 0 0
2.6543 0 0
2.6543 0 0
2.75049 0 0
2.75049 0 0
2.84668 0 0
2.84668 0 0
2.94287 0 0
2.94287 0 0
3.03906 0 0
3.03906 0 0
3.13525 0 0
3.13525 0 0
3.23145 0 0
3.23145 0 0
3.32764 0 0
3.32764 0 0
3.42383 0 0
3.42383 0 0
3.52002 0 0
3.52002 0 0
3.61621 0 0
3.61621 0 0
3.7124 0 0
3.7124 0 0
3.80859 0 0
3.80859 0 0
3.90479 0 0
3.90479 0 0
4.00098 0 0
4.00098 0 0
4.09717 0 0
4.09717 0 0
4.19336 0 0
4.19336 0 0
4.28955 0 0
4.28955 0 0
4.38574 0 0
4.38574 0 0
4.48193 0 0
4.48193 0 0
4.57812 0 0
4.57812 0 0
4.67432 0 0
4.67432 0 0
4.77051 0 0
4.77051 0 0
4.8667 0 0
4.8667 0 0
4.96289 0 0
4.96289 0 0
5.05908 0 0
5.05908 0 0
5.15527 0 0
5.15527 0 0
5.25146 0 0
5.25146 0 0
5.34766 0 0
5.34766 0 0
5.44385 0 0
5.44385 0 0
5.54004 0 0
5.54004 0 0
5.63623 0 0
5.63623 0 0
5.73242 0 0
5.73242 0 0
5.82861 0 0
5.82861 0 0
5.9248 0 0
5.9248 0 0
6.021 0 0
6.021 0 0
6.11719 0 0
6.11719 0 0
6.21338 0 0
6.21338 0 0
6.30957 0 0
6.30957 0 0
6.40576 0 0
6.40576 0 0
6.50195 0 0
6.50195 0 0
6.59814 0 0
6.59814 0 0
6.69434 0 0
6.69434 0 0
6.79053 0 0
6.79053 0 0
6.88672 0 0
6.88672 0 0
6.98291 0 0
6.98291 0 0
7.0791 0 0
7.0791 0 0
7.17529 0 0
7.17529 0 0
7.27148 0 0
7.27148 0 0
7.36768 0 0
7.36768 0 0
7.46387 0 0
7.46387 0 0
7.56006 0 0
7.56006 0 0
7.65625 0 0
7.65625 0 0
7.75244 0 0
7.75244 0 0
7.84863 0 0
7.84863 0 0
7.94482 0 0
7.94482 0 0
8.04102 0 0
8.04102 0 0
8.13721 0 0
8.13721 0 0
8.2334 0 0
8.2334 0 0
8.32959 0 0
8.32959 0 0
8.42578 0 0
8.42578 0 0
8.52197 0 0
8.52197 0 0
8.61816 0 0
8.61816 0 0
8.71436 0 0
8.71436 0 0
8.81055 0 0
8.81055 0 0
8.90674 0 0
8.90674 0 0
9.00293 0 0
9.00293 0 0
9.09912 0 0
9.09912 0 0
9.19531 0 0
9.19531 0 0
9.2915 0 0
9.2915 0 0
9.3877 0 0
9.3877 0 0
9.48389 0 0
9.48389 0 0
9.58008 0 0
9.58008 0 0
9.67627 0 0
9.67627 0 0
9.77246 0 0
9.77246 0 0
9.86865 0 0
9.86865 0 0
9.96484 0 0
9.96484 0 0
10.061 0 0
10.061 0 0
10.1572 0 0
10.1572 0 0
10.2534 0 0
10.2534 0 0
10.3496 0 0
10.3496 0 0
10.4458 0 0
10.4458 0 0
10.542 0 0
10.542 0 0
10.6382 0 0
10.6382 0 0
10.7344 0 0
10.7344 0 0
10.8306 0 0
10.8306 0 0
10.9268 0 0
10.9268 0 0
11.0229 0 0
11.0229 0 0
11.1191 0 0
11.1191 0 0
11.2153 0 0
11.2153 0 0
11.3115 0 0
11.3115 0 0
11.4077 0 0
11.4077 0 0
11.5039 0 0
11.5039 0 0
11.6001 0 0
11.6001 0 0
11.6963 0 0
11.6963 0 0
11.7925 0 0
11.7925 0 0
11.8887 0 0
11.8887 0 0
11.9849 0 0
11.9849 0 0
12.0811 0 0
12.0811 0 0
12.1772 0 0
12.1772 0 0
12.2734 0 0
12.2734 0 0
12.3696 0 0
12.3696 0 0
12.4658 0 0
12.4658 0 0
12.562 0 0
12.562 0 0
12.6582 0 0
12.6582 0 0
12.7544 0 0
12.7544 0 0
12.8506 0 0
12.8506 0 0
12.9468 0 0
12.9468 0 0
13.043 0 0
13.043 0 0
13.1392 0 0
13.1392 0 0
13.2354 0 0
13.2354 0 0
13.3315 0 0
13.3315 0 0
13.4277 0 0
13.4277 0 0
13.5239 0 0
13.5239 0 0
13.6201 0 0
13.6201 0 0
13.7163 0 0
13.7163 0 0
13.8125 0 0
13.8125 0 0
13.9087 0 0
13.9087 0 0
14.0049 0 0
14.0049 0 0
14.1011 0 0
14.1011 0 0
14.1973 0 0
14.1973 0 0
14.2935 0 0
14.2935 0 0
14.3896 0 0
14.3896 0 0
14.4858 0 0
14.4858 0 0
14.582 0 0
14.582 0 0
14.6782 0 0
14.6782 0 0
14.7744 0 0
14.7744 0 0
14.8706 0 0
14.8706 0 0
14.9668 0 0
14.9668 0 0
15.063 0 0
15.063 0 0
15.1592 0 0
15.1592 0 0
15.2554 0 0
15.2554 0 0
15.3516 0 0
15.3516 0 0
15.4478 0 0
15.4478 0 0
15.5439 0 0
15.5439 0 0
15.6401 0 0
15.6401 0 0
15.7363 0 0
15.7363 0 0
15.8325 0 0
15.8325 0 0
15.9287 0 0
15.9287 0 0
16.0249 0 0
16.0249 0 0
16.1211 0 0
16.1211 0 0
16.2173 0 0
16.2173 0 0
16.3135 0 0
16.3135 0 0
16.4097 0 0
16.4097 0 0
16.5059 0 0
16.5059 0 0
16.6021 0 0
16.6021 0 0
16.6982 0 0
16.6982 0 0
16.7944 0 0
16.7944 0 0
16.8906 0 0
16.8906 0 0
16.9868 0 0
16.9868 0 0
17.083 0 0
17.083 0 0
17.1792 0 0
17.1792 0 0
17.2754 0 0
17.2754 0 0
17.3716 0 0
17.3716 0 0
17.4678 0 0
17.4678 0 0
17.564 0 0
17.564 0 0
17.6602 0 0
17.6602 0 0
17.7563 0 0
17.7563 0 0
17.8525 0 0
17.8525 0 0
17.9487 0 0
17.9487 0 0
18.0449 0 0
18.0449 0 0
18.1411 0 0
18.1411 0 0
18.2373 0 0
18.2373 0 0
18.3335 0 0
18.3335 0 0
18.4297 0 0
18.4297 0 0
18.5259 0 0
18.5259 0 0
18.6221 0 0
18.6221 0 0
18.7183 0 0
18.7183 0 0
18.8145 0 0
18.8145 0 0
18.9106 0 0
18.9106 0 0
19.0068 0 0
19.0068 0 0
19.103 0 0
19.103 0 0
19.1992 0 0
19.1992 0 0
19.2954 0 0
19.2954 0 0
19.3916 0 0
19.3916 0 0
19.4878 0 0
19.4878 0 0
19.584 0 0
19.584 0 0
19.6802 0 0
19.6802 0 0
19.7764 0 0
19.7764 0 0
19.8726 0 0
19.8726 0 0
19.9688 0 0
19.9688 0 0
20.0649 0 0
20.0649 0 0
20.1611 0 0
20.1611 0 0
20.2573 0 0
20.2573 0 0
20.3535 0 0
20.3535 0 0
20.4497 0 0
20.4497 0 0
20.5459 0 0
20.5459 0 0
20.6421 0 0
20.6421 0 0
20.7383 0 0
20.7383 0 0
20.8345 0 0
20.8345 0 0
20.9307 0 0
20.9307 0 0
21.0269 0 0
21.0269 0 0
21.123 0 0
21.123 0 0
21.2192 0 0
21.2192 0 0
21.3154 0 0
21.3154 0 0
21.4116 0 0
21.4116 0 0
21.5078 0 0
21.5078 0 0
21.604 0 0
21.604 0 0
21.7002 0 0
21.7002 0 0
21.7964 0 0
21.7964 0 0
21.8926 0 0
21.8926 0 0
21.9888 0 0
21.9888 0 0
22.085 0 0
22.085 0 0
22.1812 0 0
22.1812 0 0
22.2773 0 0
22.2773 0 0
22.3735 0 0
22.3735 0 0
22.4697 0 0
22.4697 0 0
22.5659 0 0
22.5659 0 0
22.6621 0 0
22.6621 0 0
22.7583 0 0
22.7583 0 0
22.8545 0 0
22.8545 0 0
22.9507 0 0
22.9507 0 0
23.0469 0 0
23.0469 0 0
23.1431 0 0
23.1431 0 0
23.2393 0 0
23.2393 0 0
23.3354 0 0
23.3354 0 0
23.4316 0 0
23.4316 0 0
23.5278 0 0
23.5278 0 0
23.624 0 0
23.624 0 0
23.7202 0 0
23.7202 0 0
23.8164 0 0
23.8164 0 0
23.9126 0 0
23.9126 0 0
24.0088 0 0
24.0088 0 0
24.105 0 0
24.105 0 0
24.2012 0 0
24.2012 0 0
24.2974 0 0
24.2974 0 0
24.3936 0 0
24.3936 0 0
24.4897 0 0
24.4897 0 0
24.5859 0 0
24.5859 0 0
24.6821 0 0
24.6821 0 0
24.7783 0 0
24.7783 0 0
24.8745 0 0
24.8745 0 0
24.9707 0 0
24.9707 0 0
25.0669 0 0
25.0669 0 0
25.1631 0 0
25.1631 0 0
25.2593 0 0
25.2593 0 0
25.3555 0 0
25.3555 0 0
25.4517 0 0
25.4517 0 0
25.5479 0 0
25.5479 0 0
25.644 0 0
25.644 0 0
25.7402 0 0
25.7402 0 0
25.8364 0 0
25.8364 0 0
25.9326 0 0
25.9326 0 0
26.0288 0 0
26.0288 0 0
26.125 0 0
26.125 0 0
26.2212 0 0
26.2212 0 0
26.3174 0 0
26.3174 0 0
26.4136 0 0
26.4136 0 0
26.5098 0 0
26.5098 0 0
26.606 0 0
26.606 0 0
26.7021 0 0
26.7021 0 0
26.7983 0 0
26.7983 0 0
26.8945 0 0
26.8945 0 0
26.9907 0 0
26.9907 0 0
27.0869 0 0
27.0869 0 0
27.1831 0 0
27.1831 0 0
27.2793 0 0
27.2793 0 0
27.3755 0 0
27.3755 0 0
27.4717 0 0
27.4717 0 0
27.5679 0 0
27.5679 0 0
27.6641 0 0
27.6641 0 0
27.7603 0 0
27.7603 0 0
27.8564 0 0
27.8564 0 0
27.9526 0 0
27.9526 0 0
28.0488 0 0
28.0488 0 0
28.145 0 0
28.145 0 0
28.2412 0 0
28.2412 0 0
28.3374 0 0
28.3374 0 0
28.4336 0 0
28.4336 0 0
28.5298 0 0
28.5298 0 0
28.626 0 0
28.626 0 0
28.7222 0 0
28.7222 0 0
28.8184 0 0
28.8184 0 0
28.9146 0 0
28.9146 0 0
29.0107 0 0
29.0107 0 0
29.1069 0 0
29.1069 0 0
29.2031 0 0
29.2031 0 0
29.2993 0 0
29.2993 0 0
29.3955 0 0
29.3955 0 0
29.4917 0 0
29.4917 0 0
29.5879 0 0
29.5879 0 0
29.6841 0 0
29.6841 0 0
29.7803 0 0
29.7803 0 0
29.8765 0 0
29.8765 0 0
29.9727 0 0
29.9727 0 0
30.0688 0 0
30.0688 0 0
30.165 0 0
30.165 0 0
30.2612 0 0
30.2612 0 0
30.3574 0 0
30.3574 0 0
30.4536 0 0
30.4536 0 0
30.5498 0 0
30.5498 0 0
30.646 0 0
30.646 0 0
30.7422 0 0
30.7422 0 0
30.8384 0 0
30.8384 0 0
30.9346 0 0
30.9346 0 0
31.0308 0 0
31.0308 0 0
31.127 0 0
31.127 0 0
31.2231 0 0
31.2231 0 0
31.3193 0 0
31.3193 0 0
31.4155 0 0
31.4155 0 0
31.5117 0 0
31.5117 0 0
31.6079 0 0
31.6079 0 0
31.7041 0 0
31.7041 0 0
31.8003 0 0
31.8003 0 0
31.8965 0 0
31.8965 0 0
31.9927 0 0
31.9927 0 0
32.0889 0 0
32.0889 0 0
32.1851 0 0
32.1851 0 0
32.2812 0 0
32.2812 0 0
32.3774 0 0
32.3774 0 0
32.4736 0 0
32.4736 0 0
32.5698 0 0
32.5698 0 0
32.666 0 0
32.666 0 0
32.7622 0 0
32.7622 0 0
32.8584 0 0
32.8584 0 0
32.9546 0 0
32.9546 0 0
33.0508 0 0
33.0508 0 0
33.147 0 0
33.147 0 0
33.2432 0 0
33.2432 0 0
33.3394 0 0
33.3394 0 0
33.4355 0 0
33.4355 0 0
33.5317 0 0
33.5317 0 0
33.6279 0 0
33.6279 0 0
33.7241 0 0
33.7241 0 0
33.8203 0 0
33.8203 0 0
33.9165 0 0
33.9165 0 0
34.0127 0 0
34.0127 0 0
34.1089 0 0
34.1089 0 0
34.2051 0 0
34.2051 0 0
34.3013 0 0
34.3013 0 0
34.3975 0 0
34.3975 0 0
34.4937 0 0
34.4937 0 0
34.5898 0 0
34.5898 0 0
34.686 0 0
34.686 0 0
34.7822 0 0
34.7822 0 0
34.8784 0 0
34.8784 0 0
34.9746 0 0
34.9746 0 0
35.0708 0 0
35.0708 0 0
35.167 0 0
35.167 0 0
35.2632 0 0
35.2632 0 0
35.3594 0 0
35.3594 0 0
35.4556 0 0
35.4556 0 0
35.5518 0 0
35.5518 0 0
35.6479 0 0
35.6479 0 0
35.7441 0 0
35.7441 0 0
35.8403 0 0
35.8403 0 0
35.9365 0 0
35.9365 0 0
36.0327 0 0
36.0327 0 0
36.1289 0 0
36.1289 0 0
36.2251 0 0
36.2251 0 0
36.3213 0 0
36.3213 0 0
36.4175 0 0
36.4175 0 0
36.5137 0 0
36.5137 0 0
36.6099 0 0
36.6099 0 0
36.7061 0 0
36.7061 0 0
36.8022 0 0
36.8022 0 0
36.8984 0 0
36.8984 0 0
36.9946 0 0
36.9946 0 0
37.0908 0 0
37.0908 0 0
37.187 0 0
37.187 0 0
37.2832 0 0
37.2832 0 0
37.3794 0 0
37.3794 0 0
37.4756 0 0
37.4756 0 0
37.5718 0 0
37.5718 0 0
37.668 0 0
37.668 0 0
37.7642 0 0
37.7642 0 0
37.8604 0 0
37.8604 0 0
37.9565 0 0
37.9565 0 0
38.0527 0 0
38.0527 0 0
38.1489 0 0
38.1489 0 0
38.2451 0 0
38.2451 0 0
38.3413 0 0
38.3413 0 0
38.4375 0 0
38.4375 0 0
38.5337 0 0
38.5337 0 0
38.6299 0 0
38.6299 0 0
38.7261 0 0
38.7261 0 0
38.8223 0 0
38.8223 0 0
38.9185 0 0
38.9185 0 0
39.0146 0 0
39.0146 0 0
39.1108 0 0
39.1108 0 0
39.207 0 0
39.207 0 0
39.3032 0 0
39.3032 0 0
39.3994 0 0
39.3994 0 0
39.4956 0 0
39.4956 0 0
39.5918 0 0
39.5918 0 0
39.688 0 0
39.688 0 0
39.7842 0 0
39.7842 0 0
39.8804 0 0
39.8804 0 0
39.9766 0 0
39.9766 0 0
40.0728 0 0
40.0728 0 0
40.1689 0 0
40.1689 0 0
40.2651 0 0
40.2651 0 0
40.3613 0 0
40.3613 0 0
40.4575 0 0
40.4575 0 0
40.5537 0 0
40.5537 0 0
40.6499 0 0
40.6499 0 0
40.7461 0 0
40.7461 0 0
40.8423 0 0
40.8423 0 0
40.9385 0 0
40.9385 0 0
41.0347 0 0
41.0347 0 0
41.1309 0 0
41.1309 0 0
41.2271 0 0
41.2271 0 0
[...]
POINT_DATA 2048
SCALARS solution_0 double 1
LOOKUP_TABLE default
-2.35143e+09 -2.33609e+09 -2.33609e+09 -2.3282e+09 -2.3282e+09 -2.32623e+09 -2.32623e+09 -2.32895e+09 -2.32895e+09 -2.33538e+09 -2.33538e+09 -2.34475e+09 -2.34475e+09 -2.35643e+09 -2.35643e+09 -2.36992e+09 -2.36992e+09 -2.38481e+09 -2.38481e+09 -2.40076e+09 -2.40076e+09 -2.41751e+09 -2.41751e+09 -2.43482e+09 -2.43482e+09 -2.45251e+09 -2.45251e+09 -2.47043e+09 -2.47043e+09 -2.48845e+09 -2.48845e+09 -2.50647e+09 -2.50647e+09 -2.5244e+09 -2.5244e+09 -2.54217e+09 -2.54217e+09 -2.55971e+09 -2.55971e+09 -2.57698e+09 -2.57698e+09 -2.59394e+09 -2.59394e+09 -2.61054e+09 -2.61054e+09 -2.62677e+09 -2.62677e+09 -2.64261e+09 -2.64261e+09 -2.65802e+09 -2.65802e+09 -2.673e+09 -2.673e+09 -2.68754e+09 -2.68754e+09 -2.70163e+09 -2.70163e+09 -2.71526e+09 -2.71526e+09 -2.72843e+09 -2.72843e+09 -2.74113e+09 -2.74113e+09 -2.75336e+09 -2.75336e+09 -2.76513e+09 -2.76513e+09 -2.77643e+09 -2.77643e+09 -2.78726e+09 -2.78726e+09 -2.79763e+09 -2.79763e+09 -2.80755e+09 -2.80755e+09 -2.81701e+09 -2.81701e+09 -2.82602e+09 -2.82602e+09 -2.83459e+09 -2.83459e+09 -2.84271e+09 -2.84271e+09 -2.8504e+09 -2.8504e+09 -2.85766e+09 -2.85766e+09 -2.86449e+09 -2.86449e+09 -2.87091e+09 -2.87091e+09 -2.87692e+09 -2.87692e+09 -2.88251e+09 -2.88251e+09 -2.88771e+09 -2.88771e+09 -2.89252e+09 -2.89252e+09 -2.89694e+09 -2.89694e+09 -2.90097e+09 -2.90097e+09 -2.90463e+09 -2.90463e+09 -2.90793e+09 -2.90793e+09 -2.91086e+09 -2.91086e+09 -2.91343e+09 -2.91343e+09 -2.91566e+09 -2.91566e+09 -2.91754e+09 -2.91754e+09 -2.91908e+09 -2.91908e+09 -2.9203e+09 -2.9203e+09 -2.92118e+09 -2.92118e+09 -2.92175e+09 -2.92175e+09 -2.922e+09 -2.922e+09 -2.92195e+09 -2.92195e+09 -2.92159e+09 -2.92159e+09 -2.92094e+09 -2.92094e+09 -2.91999e+09 -2.91999e+09 -2.91876e+09 -2.91876e+09 -2.91725e+09 -2.91725e+09 -2.91547e+09 -2.91547e+09 -2.91342e+09 -2.91342e+09 -2.9111e+09 -2.9111e+09 -2.90852e+09 -2.90852e+09 -2.90569e+09 -2.90569e+09 -2.90261e+09 -2.90261e+09 -2.89929e+09 -2.89929e+09 -2.89573e+09 -2.89573e+09 -2.89194e+09 -2.89194e+09 -2.88791e+09 -2.88791e+09 -2.88366e+09 -2.88366e+09 -2.8792e+09 -2.8792e+09 -2.87451e+09 -2.87451e+09 -2.86962e+09 -2.86962e+09 -2.86452e+09 -2.86452e+09 -2.85922e+09 -2.85922e+09 -2.85371e+09 -2.85371e+09 -2.84802e+09 -2.84802e+09 -2.84214e+09 -2.84214e+09 -2.83607e+09 -2.83607e+09 -2.82982e+09 -2.82982e+09 -2.82339e+09 -2.82339e+09 -2.81679e+09 -2.81679e+09 -2.81002e+09 -2.81002e+09 -2.80308e+09 -2.80308e+09 -2.79598e+09 -2.79598e+09 -2.78872e+09 -2.78872e+09 -2.78131e+09 -2.78131e+09 -2.77375e+09 -2.77375e+09 -2.76604e+09 -2.76604e+09 -2.75818e+09 -2.75818e+09 -2.75019e+09 -2.75019e+09 -2.74206e+09 -2.74206e+09 -2.73379e+09 -2.73379e+09 -2.72539e+09 -2.72539e+09 -2.71686e+09 -2.71686e+09 -2.70821e+09 -2.70821e+09 -2.69944e+09 -2.69944e+09 -2.69055e+09 -2.69055e+09 -2.68155e+09 -2.68155e+09 -2.67243e+09 -2.67243e+09 -2.6632e+09 -2.6632e+09 -2.65387e+09 -2.65387e+09 -2.64443e+09 -2.64443e+09 -2.63489e+09 -2.63489e+09 -2.62526e+09 -2.62526e+09 -2.61552e+09 -2.61552e+09 -2.6057e+09 -2.6057e+09 -2.59578e+09 -2.59578e+09 -2.58578e+09 -2.58578e+09 -2.57569e+09 -2.57569e+09 -2.56552e+09 -2.56552e+09 -2.55527e+09 -2.55527e+09 -2.54494e+09 -2.54494e+09 -2.53454e+09 -2.53454e+09 -2.52406e+09 -2.52406e+09 -2.51352e+09 -2.51352e+09 -2.5029e+09 -2.5029e+09 -2.49222e+09 -2.49222e+09 -2.48148e+09 -2.48148e+09 -2.47067e+09 -2.47067e+09 -2.4598e+09 -2.4598e+09 -2.44888e+09 -2.44888e+09 -2.4379e+09 -2.4379e+09 -2.42687e+09 -2.42687e+09 -2.41579e+09 -2.41579e+09 -2.40465e+09 -2.40465e+09 -2.39347e+09 -2.39347e+09 -2.38225e+09 -2.38225e+09 -2.37098e+09 -2.37098e+09 -2.35967e+09 -2.35967e+09 -2.34832e+09 -2.34832e+09 -2.33693e+09 -2.33693e+09 -2.32551e+09 -2.32551e+09 -2.31405e+09 -2.31405e+09 -2.30256e+09 -2.30256e+09 -2.29103e+09 -2.29103e+09 -2.27948e+09 -2.27948e+09 -2.2679e+09 -2.2679e+09 -2.25629e+09 -2.25629e+09 -2.24466e+09 -2.24466e+09 -2.23301e+09 -2.23301e+09 -2.22133e+09 -2.22133e+09 -2.20964e+09 -2.20964e+09 -2.19792e+09 -2.19792e+09 -2.18619e+09 -2.18619e+09 -2.17445e+09 -2.17445e+09 -2.16269e+09 -2.16269e+09 -2.15091e+09 -2.15091e+09 -2.13913e+09 -2.13913e+09 -2.12733e+09 -2.12733e+09 -2.11553e+09 -2.11553e+09 -2.10371e+09 -2.10371e+09 -2.0919e+09 -2.0919e+09 -2.08007e+09 -2.08007e+09 -2.06825e+09 -2.06825e+09 -2.05642e+09 -2.05642e+09 -2.04459e+09 -2.04459e+09 -2.03275e+09 -2.03275e+09 -2.02092e+09 -2.02092e+09 -2.00909e+09 -2.00909e+09 -1.99727e+09 -1.99727e+09 -1.98545e+09 -1.98545e+09 -1.97363e+09 -1.97363e+09 -1.96182e+09 -1.96182e+09 -1.95002e+09 -1.95002e+09 -1.93823e+09 -1.93823e+09 -1.92644e+09 -1.92644e+09 -1.91467e+09 -1.91467e+09 -1.9029e+09 -1.9029e+09 -1.89115e+09 -1.89115e+09 -1.87942e+09 -1.87942e+09 -1.86769e+09 -1.86769e+09 -1.85598e+09 -1.85598e+09 -1.84429e+09 -1.84429e+09 -1.83261e+09 -1.83261e+09 -1.82095e+09 -1.82095e+09 -1.80931e+09 -1.80931e+09 -1.79769e+09 -1.79769e+09 -1.78609e+09 -1.78609e+09 -1.77451e+09 -1.77451e+09 -1.76295e+09 -1.76295e+09 -1.75141e+09 -1.75141e+09 -1.73989e+09 -1.73989e+09 -1.7284e+09 -1.7284e+09 -1.71693e+09 -1.71693e+09 -1.70549e+09 -1.70549e+09 -1.69407e+09 -1.69407e+09 -1.68268e+09 -1.68268e+09 -1.67131e+09 -1.67131e+09 -1.65998e+09 -1.65998e+09 -1.64867e+09 -1.64867e+09 -1.63739e+09 -1.63739e+09 -1.62614e+09 -1.62614e+09 -1.61492e+09 -1.61492e+09 -1.60372e+09 -1.60372e+09 -1.59256e+09 -1.59256e+09 -1.58144e+09 -1.58144e+09 -1.57034e+09 -1.57034e+09 -1.55927e+09 -1.55927e+09 -1.54824e+09 -1.54824e+09 -1.53724e+09 -1.53724e+09 -1.52628e+09 -1.52628e+09 -1.51535e+09 -1.51535e+09 -1.50445e+09 -1.50445e+09 -1.49359e+09 -1.49359e+09 -1.48277e+09 -1.48277e+09 -1.47198e+09 -1.47198e+09 -1.46123e+09 -1.46123e+09 -1.45052e+09 -1.45052e+09 -1.43984e+09 -1.43984e+09 -1.4292e+09 -1.4292e+09 -1.4186e+09 -1.4186e+09 -1.40803e+09 -1.40803e+09 -1.39751e+09 -1.39751e+09 -1.38702e+09 -1.38702e+09 -1.37657e+09 -1.37657e+09 -1.36617e+09 -1.36617e+09 -1.3558e+09 -1.3558e+09 -1.34547e+09 -1.34547e+09 -1.33518e+09 -1.33518e+09 -1.32494e+09 -1.32494e+09 -1.31473e+09 -1.31473e+09 -1.30457e+09 -1.30457e+09 -1.29445e+09 -1.29445e+09 -1.28437e+09 -1.28437e+09 -1.27433e+09 -1.27433e+09 -1.26433e+09 -1.26433e+09 -1.25438e+09 -1.25438e+09 -1.24447e+09 -1.24447e+09 -1.2346e+09 -1.2346e+09 -1.22478e+09 -1.22478e+09 -1.215e+09 -1.215e+09 -1.20526e+09 -1.20526e+09 -1.19556e+09 -1.19556e+09 -1.18591e+09 -1.18591e+09 -1.17631e+09 -1.17631e+09 -1.16674e+09 -1.16674e+09 -1.15722e+09 -1.15722e+09 -1.14775e+09 -1.14775e+09 -1.13832e+09 -1.13832e+09 -1.12893e+09 -1.12893e+09 -1.11959e+09 -1.11959e+09 -1.1103e+09 -1.1103e+09 -1.10105e+09 -1.10105e+09 -1.09184e+09 -1.09184e+09 -1.08268e+09 -1.08268e+09 -1.07356e+09 -1.07356e+09 -1.06449e+09 -1.06449e+09 -1.05547e+09 -1.05547e+09 -1.04649e+09 -1.04649e+09 -1.03755e+09 -1.03755e+09 -1.02867e+09 -1.02867e+09 -1.01982e+09 -1.01982e+09 -1.01102e+09 -1.01102e+09 -1.00227e+09 -1.00227e+09 -9.93566e+08 -9.93566e+08 -9.84905e+08 -9.84905e+08 -9.7629e+08 -9.7629e+08 -9.6772e+08 -9.6772e+08 -9.59197e+08 -9.59197e+08 -9.50719e+08 -9.50719e+08 -9.42287e+08 -9.42287e+08 -9.339e+08 -9.339e+08 -9.25559e+08 -9.25559e+08 -9.17264e+08 -9.17264e+08 -9.09015e+08 -9.09015e+08 -9.00811e+08 -9.00811e+08 -8.92653e+08 -8.92653e+08 -8.8454e+08 -8.8454e+08 -8.76474e+08 -8.76474e+08 -8.68452e+08 -8.68452e+08 -8.60476e+08 -8.60476e+08 -8.52546e+08 -8.52546e+08 -8.44661e+08 -8.44661e+08 -8.36822e+08 -8.36822e+08 -8.29027e+08 -8.29027e+08 -8.21278e+08 -8.21278e+08 -8.13574e+08 -8.13574e+08 -8.05916e+08 -8.05916e+08 -7.98302e+08 -7.98302e+08 -7.90733e+08 -7.90733e+08 -7.83209e+08 -7.83209e+08 -7.7573e+08 -7.7573e+08 -7.68296e+08 -7.68296e+08 -7.60906e+08 -7.60906e+08 -7.53561e+08 -7.53561e+08 -7.4626e+08 -7.4626e+08 -7.39004e+08 -7.39004e+08 -7.31792e+08 -7.31792e+08 -7.24624e+08 -7.24624e+08 -7.175e+08 -7.175e+08 -7.10421e+08 -7.10421e+08 -7.03385e+08 -7.03385e+08 -6.96392e+08 -6.96392e+08 -6.89444e+08 -6.89444e+08 -6.82538e+08 -6.82538e+08 -6.75677e+08 -6.75677e+08 -6.68858e+08 -6.68858e+08 -6.62083e+08 -6.62083e+08 -6.5535e+08 -6.5535e+08 -6.48661e+08 -6.48661e+08 -6.42014e+08 -6.42014e+08 -6.3541e+08 -6.3541e+08 -6.28849e+08 -6.28849e+08 -6.22329e+08 -6.22329e+08 -6.15852e+08 -6.15852e+08 -6.09417e+08 -6.09417e+08 -6.03024e+08 -6.03024e+08 -5.96673e+08 -5.96673e+08 -5.90364e+08 -5.90364e+08 -5.84095e+08 -5.84095e+08 -5.77869e+08 -5.77869e+08 -5.71683e+08 -5.71683e+08 -5.65539e+08 -5.65539e+08 -5.59435e+08 -5.59435e+08 -5.53372e+08 -5.53372e+08 -5.4735e+08 -5.4735e+08 -5.41368e+08 -5.41368e+08 -5.35427e+08 -5.35427e+08 -5.29525e+08 -5.29525e+08 -5.23664e+08 -5.23664e+08 -5.17842e+08 -5.17842e+08 -5.1206e+08 -5.1206e+08 -5.06317e+08 -5.06317e+08 -5.00614e+08 -5.00614e+08 -4.94949e+08 -4.94949e+08 -4.89324e+08 -4.89324e+08 -4.83738e+08 -4.83738e+08 -4.7819e+08 -4.7819e+08 -4.7268e+08 -4.7268e+08 -4.67209e+08 -4.67209e+08 -4.61776e+08 -4.61776e+08 -4.56381e+08 -4.56381e+08 -4.51023e+08 -4.51023e+08 -4.45704e+08 -4.45704e+08 -4.40421e+08 -4.40421e+08 -4.35176e+08 -4.35176e+08 -4.29968e+08 -4.29968e+08 -4.24796e+08 -4.24796e+08 -4.19662e+08 -4.19662e+08 -4.14564e+08 -4.14564e+08 -4.09502e+08 -4.09502e+08 -4.04476e+08 -4.04476e+08 -3.99486e+08 -3.99486e+08 -3.94532e+08 -3.94532e+08 -3.89614e+08 -3.89614e+08 -3.84731e+08 -3.84731e+08 -3.79884e+08 -3.79884e+08 -3.75071e+08 -3.75071e+08 -3.70293e+08 -3.70293e+08 -3.6555e+08 -3.6555e+08 -3.60842e+08 -3.60842e+08 -3.56167e+08 -3.56167e+08 -3.51527e+08 -3.51527e+08 -3.46921e+08 -3.46921e+08 -3.42349e+08 -3.42349e+08 -3.3781e+08 -3.3781e+08 -3.33305e+08 -3.33305e+08 -3.28832e+08 -3.28832e+08 -3.24393e+08 -3.24393e+08 -3.19987e+08 -3.19987e+08 -3.15613e+08 -3.15613e+08 -3.11272e+08 -3.11272e+08 -3.06963e+08 -3.06963e+08 -3.02686e+08 -3.02686e+08 -2.98441e+08 -2.98441e+08 -2.94228e+08 -2.94228e+08 -2.90046e+08 -2.90046e+08 -2.85896e+08 -2.85896e+08 -2.81777e+08 -2.81777e+08 -2.77689e+08 -2.77689e+08 -2.73631e+08 -2.73631e+08 -2.69605e+08 -2.69605e+08 -2.65608e+08 -2.65608e+08 -2.61642e+08 -2.61642e+08 -2.57706e+08 -2.57706e+08 -2.538e+08 -2.538e+08 -2.49923e+08 -2.49923e+08 -2.46076e+08 -2.46076e+08 -2.42259e+08 -2.42259e+08 -2.3847e+08 -2.3847e+08 -2.34711e+08 -2.34711e+08 -2.3098e+08 -2.3098e+08 -2.27278e+08 -2.27278e+08 -2.23604e+08 -2.23604e+08 -2.19958e+08 -2.19958e+08 -2.16341e+08 -2.16341e+08 -2.12751e+08 -2.12751e+08 -2.09189e+08 -2.09189e+08 -2.05655e+08 -2.05655e+08 -2.02148e+08 -2.02148e+08 -1.98668e+08 -1.98668e+08 -1.95215e+08 -1.95215e+08 -1.91789e+08 -1.91789e+08 -1.88389e+08 -1.88389e+08 -1.85016e+08 -1.85016e+08 -1.81669e+08 -1.81669e+08 -1.78348e+08 -1.78348e+08 -1.75053e+08 -1.75053e+08 -1.71784e+08 -1.71784e+08 -1.6854e+08 -1.6854e+08 -1.65322e+08 -1.65322e+08 -1.62129e+08 -1.62129e+08 -1.58961e+08 -1.58961e+08 -1.55818e+08 -1.55818e+08 -1.52699e+08 -1.52699e+08 -1.49605e+08 -1.49605e+08 -1.46536e+08 -1.46536e+08 -1.4349e+08 -1.4349e+08 -1.40469e+08 -1.40469e+08 -1.37471e+08 -1.37471e+08 -1.34497e+08 -1.34497e+08 -1.31547e+08 -1.31547e+08 -1.2862e+08 -1.2862e+08 -1.25716e+08 -1.25716e+08 -1.22835e+08 -1.22835e+08 -1.19976e+08 -1.19976e+08 -1.17141e+08 -1.17141e+08 -1.14328e+08 -1.14328e+08 -1.11537e+08 -1.11537e+08 -1.08769e+08 -1.08769e+08 -1.06022e+08 -1.06022e+08 -1.03298e+08 -1.03298e+08 -1.00595e+08 -1.00595e+08 -9.79136e+07 -9.79136e+07 -9.52536e+07 -9.52536e+07 -9.26148e+07 -9.26148e+07 -8.9997e+07 -8.9997e+07 -8.74002e+07 -8.74002e+07 -8.48241e+07 -8.48241e+07 -8.22686e+07 -8.22686e+07 -7.97335e+07 -7.97335e+07 -7.72186e+07 -7.72186e+07 -7.47239e+07 -7.47239e+07 -7.22492e+07 -7.22492e+07 -6.97943e+07 -6.97943e+07 -6.7359e+07 -6.7359e+07 -6.49433e+07 -6.49433e+07 -6.25469e+07 -6.25469e+07 -6.01697e+07 -6.01697e+07 -5.78116e+07 -5.78116e+07 -5.54724e+07 -5.54724e+07 -5.3152e+07 -5.3152e+07 -5.08502e+07 -5.08502e+07 -4.85669e+07 -4.85669e+07 -4.63019e+07 -4.63019e+07 -4.40551e+07 -4.40551e+07 -4.18263e+07 -4.18263e+07 -3.96155e+07 -3.96155e+07 -3.74223e+07 -3.74223e+07 -3.52469e+07 -3.52469e+07 -3.30889e+07 -3.30889e+07 -3.09482e+07 -3.09482e+07 -2.88247e+07 -2.88247e+07 -2.67183e+07 -2.67183e+07 -2.46288e+07 -2.46288e+07 -2.25561e+07 -2.25561e+07 -2.05001e+07 -2.05001e+07 -1.84606e+07 -1.84606e+07 -1.64374e+07 -1.64374e+07 -1.44305e+07 -1.44305e+07 -1.24397e+07 -1.24397e+07 -1.0465e+07 -1.0465e+07 -8.50601e+06 -8.50601e+06 -6.5628e+06 -6.5628e+06 -4.63518e+06 -4.63518e+06 -2.72303e+06 -2.72303e+06 -826214 -826214 1.05539e+06 1.05539e+06 2.92191e+06 2.92191e+06 4.77347e+06 4.77347e+06 6.6102e+06 6.6102e+06 8.43222e+06 8.43222e+06 1.02396e+07 1.02396e+07 1.20326e+07 1.20326e+07 1.38112e+07 1.38112e+07 1.55756e+07 1.55756e+07 1.73259e+07 1.73259e+07 1.90623e+07 1.90623e+07 2.07847e+07 2.07847e+07 2.24934e+07 2.24934e+07 2.41885e+07 2.41885e+07 2.58701e+07 2.58701e+07 2.75383e+07 2.75383e+07 2.91932e+07 2.91932e+07 3.08349e+07 3.08349e+07 3.24636e+07 3.24636e+07 3.40793e+07 3.40793e+07 3.56822e+07 3.56822e+07 3.72724e+07 3.72724e+07 3.88499e+07 3.88499e+07 4.0415e+07 4.0415e+07 4.19677e+07 4.19677e+07 4.35081e+07 4.35081e+07 4.50363e+07 4.50363e+07 4.65525e+07 4.65525e+07 4.80567e+07 4.80567e+07 4.9549e+07 4.9549e+07 5.10296e+07 5.10296e+07 5.24986e+07 5.24986e+07 5.3956e+07 5.3956e+07 5.54019e+07 5.54019e+07 5.68365e+07 5.68365e+07 5.82599e+07 5.82599e+07 5.96721e+07 5.96721e+07 6.10733e+07 6.10733e+07 6.24635e+07 6.24635e+07 6.38429e+07 6.38429e+07 6.52115e+07 6.52115e+07 6.65695e+07 6.65695e+07 6.79169e+07 6.79169e+07 6.92539e+07 6.92539e+07 7.05805e+07 7.05805e+07 7.18968e+07 7.18968e+07 7.32029e+07 7.32029e+07 7.4499e+07 7.4499e+07 7.5785e+07 7.5785e+07 7.70612e+07 7.70612e+07 7.83275e+07 7.83275e+07 7.95841e+07 7.95841e+07 8.0831e+07 8.0831e+07 8.20684e+07 8.20684e+07 8.32964e+07 8.32964e+07 8.45149e+07 8.45149e+07 8.57242e+07 8.57242e+07 8.69242e+07 8.69242e+07 8.81151e+07 8.81151e+07 8.9297e+07 8.9297e+07 9.047e+07 9.047e+07 9.1634e+07 9.1634e+07 9.27893e+07 9.27893e+07 9.39359e+07 9.39359e+07 9.50738e+07 9.50738e+07 9.62032e+07 9.62032e+07 9.73241e+07 9.73241e+07 9.84366e+07 9.84366e+07 9.95408e+07 9.95408e+07 1.00637e+08 1.00637e+08 1.01725e+08 1.01725e+08 1.02804e+08 1.02804e+08 1.03876e+08 1.03876e+08 1.0494e+08 1.0494e+08 1.05996e+08 1.05996e+08 1.07044e+08 1.07044e+08 1.08084e+08 1.08084e+08 1.09117e+08 1.09117e+08 1.10142e+08 1.10142e+08 1.1116e+08 1.1116e+08 1.1217e+08 1.1217e+08 1.13173e+08 1.13173e+08 1.14169e+08 1.14169e+08 1.15157e+08 1.15157e+08 1.16139e+08 1.16139e+08 1.17113e+08 1.17113e+08 1.1808e+08 1.1808e+08 1.1904e+08 1.1904e+08 1.19994e+08 1.19994e+08 1.2094e+08 1.2094e+08 1.2188e+08 1.2188e+08 1.22813e+08 1.22813e+08 1.2374e+08 1.2374e+08 1.24659e+08 1.24659e+08 1.25573e+08 1.25573e+08 1.2648e+08 1.2648e+08 1.2738e+08 1.2738e+08 1.28275e+08 1.28275e+08 1.29163e+08 1.29163e+08 1.30044e+08 1.30044e+08 1.3092e+08 1.3092e+08 1.3179e+08 1.3179e+08 1.32653e+08 1.32653e+08 1.33511e+08 1.33511e+08 1.34363e+08 1.34363e+08 1.35208e+08 1.35208e+08 1.36048e+08 1.36048e+08 1.36883e+08 1.36883e+08 1.37711e+08 1.37711e+08 1.38534e+08 1.38534e+08 1.39352e+08 1.39352e+08 1.40164e+08 1.40164e+08 1.4097e+08 1.4097e+08 1.41771e+08 1.41771e+08 1.42567e+08 1.42567e+08 1.43357e+08 1.43357e+08 1.44142e+08 1.44142e+08 1.44922e+08 1.44922e+08 1.45696e+08 1.45696e+08 1.46466e+08 1.46466e+08 1.4723e+08 1.4723e+08 1.4799e+08 1.4799e+08 1.48744e+08 1.48744e+08 1.49494e+08 1.49494e+08 1.50238e+08 1.50238e+08 1.50978e+08 1.50978e+08 1.51713e+08 1.51713e+08 1.52444e+08 1.52444e+08 1.53169e+08 1.53169e+08 1.5389e+08 1.5389e+08 1.54606e+08 1.54606e+08 1.55318e+08 1.55318e+08 1.56025e+08 1.56025e+08 1.56728e+08 1.56728e+08 1.57426e+08 1.57426e+08 1.5812e+08 1.5812e+08 1.5881e+08 1.5881e+08 1.59495e+08 1.59495e+08 1.60176e+08 1.60176e+08 1.60852e+08 1.60852e+08 1.61525e+08 1.61525e+08 1.62193e+08 1.62193e+08 1.62857e+08 1.62857e+08 1.63517e+08 1.63517e+08 1.64174e+08 1.64174e+08 1.64826e+08 1.64826e+08 1.65474e+08 1.65474e+08 1.66118e+08 1.66118e+08 1.66758e+08 1.66758e+08 1.67394e+08 1.67394e+08 1.68027e+08 1.68027e+08 1.68656e+08 1.68656e+08 1.69281e+08 1.69281e+08 1.69902e+08 1.69902e+08 1.70519e+08 1.70519e+08 1.71133e+08 1.71133e+08 1.71743e+08 1.71743e+08 1.7235e+08 1.7235e+08 1.72953e+08 1.72953e+08 1.73552e+08 1.73552e+08 1.74148e+08 1.74148e+08 1.74741e+08 1.74741e+08 1.7533e+08 1.7533e+08 1.75916e+08 1.75916e+08 1.76498e+08 1.76498e+08 1.77077e+08 1.77077e+08 1.77652e+08 1.77652e+08 1.78225e+08 1.78225e+08 1.78794e+08 1.78794e+08 1.79359e+08 1.79359e+08 1.79922e+08 1.79922e+08 1.80481e+08 1.80481e+08 1.81037e+08 1.81037e+08 1.8159e+08 1.8159e+08 1.8214e+08 1.8214e+08 1.82687e+08 1.82687e+08 1.8323e+08 1.8323e+08 1.83771e+08 1.83771e+08 1.84309e+08 1.84309e+08 1.84843e+08 1.84843e+08 1.85375e+08 1.85375e+08 1.85903e+08 1.85903e+08 1.86429e+08 1.86429e+08 1.86952e+08 1.86952e+08 1.87472e+08 1.87472e+08 1.87989e+08 1.87989e+08 1.88503e+08 1.88503e+08 1.89014e+08 1.89014e+08 1.89523e+08 1.89523e+08 1.90029e+08 1.90029e+08 1.90532e+08 1.90532e+08 1.91032e+08 1.91032e+08 1.91529e+08 1.91529e+08 1.92024e+08 1.92024e+08 1.92516e+08 1.92516e+08 1.93005e+08 1.93005e+08 1.93492e+08 1.93492e+08 1.93976e+08 1.93976e+08 1.94457e+08 1.94457e+08 1.94936e+08 1.94936e+08 1.95412e+08 1.95412e+08 1.95886e+08 1.95886e+08 1.96357e+08 1.96357e+08 1.96825e+08 1.96825e+08 1.97291e+08 1.97291e+08 1.97755e+08 1.97755e+08 1.98216e+08 1.98216e+08 1.98674e+08 1.98674e+08 1.9913e+08 1.9913e+08 1.99583e+08 1.99583e+08 2.00034e+08 2.00034e+08 2.00483e+08 2.00483e+08 2.00929e+08 2.00929e+08 2.01372e+08 2.01372e+08 2.01813e+08 2.01813e+08 2.02252e+08 2.02252e+08 2.02689e+08 2.02689e+08 2.03122e+08 2.03122e+08 2.03554e+08 2.03554e+08 2.03983e+08 2.03983e+08 2.0441e+08 2.0441e+08 2.04835e+08 2.04835e+08 2.05257e+08 2.05257e+08 2.05676e+08 2.05676e+08 2.06094e+08 2.06094e+08 2.06509e+08 2.06509e+08 2.06922e+08 2.06922e+08 2.07332e+08 2.07332e+08 2.07741e+08 2.07741e+08 2.08146e+08 2.08146e+08 2.0855e+08 2.0855e+08 2.08951e+08 2.08951e+08 2.0935e+08 2.0935e+08 2.09747e+08 2.09747e+08 2.10141e+08 2.10141e+08 2.10534e+08 2.10534e+08 2.10923e+08 2.10923e+08 2.11311e+08 2.11311e+08 2.11696e+08 2.11696e+08 2.12079e+08 2.12079e+08 2.1246e+08 2.1246e+08 2.12839e+08 2.12839e+08 2.13215e+08 2.13215e+08 2.13589e+08 2.13589e+08 2.13961e+08 2.13961e+08 2.1433e+08 2.1433e+08 2.14698e+08 2.14698e+08 2.15063e+08 2.15063e+08 2.15425e+08 2.15425e+08 2.15786e+08 2.15786e+08 2.16144e+08 2.16144e+08 2.165e+08 2.165e+08 2.16854e+08 2.16854e+08 2.17205e+08 2.17205e+08 2.17554e+08 2.17554e+08 2.17901e+08 2.17901e+08 2.18246e+08 2.18246e+08 2.18588e+08 2.18588e+08 2.18928e+08 2.18928e+08 2.19266e+08 2.19266e+08 2.19602e+08 2.19602e+08 2.19935e+08 2.19935e+08 2.20266e+08 2.20266e+08 2.20594e+08 2.20594e+08 2.20921e+08 2.20921e+08 2.21244e+08 2.21244e+08 2.21566e+08 2.21566e+08 2.21885e+08 2.21885e+08 2.22202e+08 2.22202e+08 2.22517e+08 2.22517e+08 2.22829e+08 2.22829e+08 2.23139e+08 2.23139e+08 2.23447e+08 2.23447e+08 2.23752e+08 2.23752e+08 2.24055e+08 2.24055e+08 2.24355e+08 2.24355e+08 2.24653e+08 2.24653e+08 2.24948e+08 2.24948e+08 2.25242e+08 2.25242e+08 2.25532e+08 2.25532e+08 2.2582e+08 2.2582e+08 2.26106e+08 2.26106e+08 2.26389e+08 2.26389e+08 2.2667e+08 2.2667e+08 2.26949e+08 2.26949e+08 2.27224e+08 2.27224e+08 2.27498e+08 2.27498e+08 2.27768e+08 2.27768e+08 2.28037e+08 2.28037e+08 2.28302e+08 2.28302e+08 2.28565e+08 2.28565e+08 2.28826e+08 2.28826e+08 2.29084e+08 2.29084e+08 2.29339e+08 2.29339e+08 2.29592e+08 2.29592e+08 2.29842e+08 2.29842e+08 2.30089e+08 2.30089e+08 2.30333e+08 2.30333e+08 2.30575e+08 2.30575e+08 2.30814e+08 2.30814e+08 2.31051e+08 2.31051e+08 2.31285e+08 2.31285e+08 2.31516e+08 2.31516e+08 2.31744e+08 2.31744e+08 2.31969e+08 2.31969e+08 2.32191e+08 2.32191e+08 2.32411e+08 2.32411e+08 2.32628e+08 2.32628e+08 2.32842e+08 2.32842e+08 2.33053e+08 2.33053e+08 2.33261e+08 2.33261e+08 2.33466e+08 2.33466e+08 2.33668e+08 2.33668e+08 2.33867e+08 2.33867e+08 2.34063e+08 2.34063e+08 2.34256e+08 2.34256e+08 2.34446e+08 2.34446e+08 2.34633e+08 2.34633e+08 2.34817e+08 2.34817e+08 2.34998e+08 2.34998e+08 2.35175e+08 2.35175e+08 2.3535e+08 2.3535e+08 2.