# vtk DataFile Version 3.0
#This file was generated by the deal.II library on 2020/9/1 at 15:07:19
ASCII
DATASET UNSTRUCTURED_GRID

POINTS 2048 double
1.5 0 0
1.59619 0 0
1.59619 0 0
1.69238 0 0
1.69238 0 0
1.78857 0 0
1.78857 0 0
1.88477 0 0
1.88477 0 0
1.98096 0 0
1.98096 0 0
2.07715 0 0
2.07715 0 0
2.17334 0 0
2.17334 0 0
2.26953 0 0
2.26953 0 0
2.36572 0 0
2.36572 0 0
2.46191 0 0
2.46191 0 0
2.55811 0 0
2.55811 0 0
2.6543 0 0
2.6543 0 0
2.75049 0 0
2.75049 0 0
2.84668 0 0
2.84668 0 0
2.94287 0 0
2.94287 0 0
3.03906 0 0
3.03906 0 0
3.13525 0 0
3.13525 0 0
3.23145 0 0
3.23145 0 0
3.32764 0 0
3.32764 0 0
3.42383 0 0
3.42383 0 0
3.52002 0 0
3.52002 0 0
3.61621 0 0
3.61621 0 0
3.7124 0 0
3.7124 0 0
3.80859 0 0
3.80859 0 0
3.90479 0 0
3.90479 0 0
4.00098 0 0
4.00098 0 0
4.09717 0 0
4.09717 0 0
4.19336 0 0
4.19336 0 0
4.28955 0 0
4.28955 0 0
4.38574 0 0
4.38574 0 0
4.48193 0 0
4.48193 0 0
4.57812 0 0
4.57812 0 0
4.67432 0 0
4.67432 0 0
4.77051 0 0
4.77051 0 0
4.8667 0 0
4.8667 0 0
4.96289 0 0
4.96289 0 0
5.05908 0 0
5.05908 0 0
5.15527 0 0
5.15527 0 0
5.25146 0 0
5.25146 0 0
5.34766 0 0
5.34766 0 0
5.44385 0 0
5.44385 0 0
5.54004 0 0
5.54004 0 0
5.63623 0 0
5.63623 0 0
5.73242 0 0
5.73242 0 0
5.82861 0 0
5.82861 0 0
5.9248 0 0
5.9248 0 0
6.021 0 0
6.021 0 0
6.11719 0 0
6.11719 0 0
6.21338 0 0
6.21338 0 0
6.30957 0 0
6.30957 0 0
6.40576 0 0
6.40576 0 0
6.50195 0 0
6.50195 0 0
6.59814 0 0
6.59814 0 0
6.69434 0 0
6.69434 0 0
6.79053 0 0
6.79053 0 0
6.88672 0 0
6.88672 0 0
6.98291 0 0
6.98291 0 0
7.0791 0 0
7.0791 0 0
7.17529 0 0
7.17529 0 0
7.27148 0 0
7.27148 0 0
7.36768 0 0
7.36768 0 0
7.46387 0 0
7.46387 0 0
7.56006 0 0
7.56006 0 0
7.65625 0 0
7.65625 0 0
7.75244 0 0
7.75244 0 0
7.84863 0 0
7.84863 0 0
7.94482 0 0
7.94482 0 0
8.04102 0 0
8.04102 0 0
8.13721 0 0
8.13721 0 0
8.2334 0 0
8.2334 0 0
8.32959 0 0
8.32959 0 0
8.42578 0 0
8.42578 0 0
8.52197 0 0
8.52197 0 0
8.61816 0 0
8.61816 0 0
8.71436 0 0
8.71436 0 0
8.81055 0 0
8.81055 0 0
8.90674 0 0
8.90674 0 0
9.00293 0 0
9.00293 0 0
9.09912 0 0
9.09912 0 0
9.19531 0 0
9.19531 0 0
9.2915 0 0
9.2915 0 0
9.3877 0 0
9.3877 0 0
9.48389 0 0
9.48389 0 0
9.58008 0 0
9.58008 0 0
9.67627 0 0
9.67627 0 0
9.77246 0 0
9.77246 0 0
9.86865 0 0
9.86865 0 0
9.96484 0 0
9.96484 0 0
10.061 0 0
10.061 0 0
10.1572 0 0
10.1572 0 0
10.2534 0 0
10.2534 0 0
10.3496 0 0
10.3496 0 0
10.4458 0 0
10.4458 0 0
10.542 0 0
10.542 0 0
10.6382 0 0
10.6382 0 0
10.7344 0 0
10.7344 0 0
10.8306 0 0
10.8306 0 0
10.9268 0 0
10.9268 0 0
11.0229 0 0
11.0229 0 0
11.1191 0 0
11.1191 0 0
11.2153 0 0
11.2153 0 0
11.3115 0 0
11.3115 0 0
11.4077 0 0
11.4077 0 0
11.5039 0 0
11.5039 0 0
11.6001 0 0
11.6001 0 0
11.6963 0 0
11.6963 0 0
11.7925 0 0
11.7925 0 0
11.8887 0 0
11.8887 0 0
11.9849 0 0
11.9849 0 0
12.0811 0 0
12.0811 0 0
12.1772 0 0
12.1772 0 0
12.2734 0 0
12.2734 0 0
12.3696 0 0
12.3696 0 0
12.4658 0 0
12.4658 0 0
12.562 0 0
12.562 0 0
12.6582 0 0
12.6582 0 0
12.7544 0 0
12.7544 0 0
12.8506 0 0
12.8506 0 0
12.9468 0 0
12.9468 0 0
13.043 0 0
13.043 0 0
13.1392 0 0
13.1392 0 0
13.2354 0 0
13.2354 0 0
13.3315 0 0
13.3315 0 0
13.4277 0 0
13.4277 0 0
13.5239 0 0
13.5239 0 0
13.6201 0 0
13.6201 0 0
13.7163 0 0
13.7163 0 0
13.8125 0 0
13.8125 0 0
13.9087 0 0
13.9087 0 0
14.0049 0 0
14.0049 0 0
14.1011 0 0
14.1011 0 0
14.1973 0 0
14.1973 0 0
14.2935 0 0
14.2935 0 0
14.3896 0 0
14.3896 0 0
14.4858 0 0
14.4858 0 0
14.582 0 0
14.582 0 0
14.6782 0 0
14.6782 0 0
14.7744 0 0
14.7744 0 0
14.8706 0 0
14.8706 0 0
14.9668 0 0
14.9668 0 0
15.063 0 0
15.063 0 0
15.1592 0 0
15.1592 0 0
15.2554 0 0
15.2554 0 0
15.3516 0 0
15.3516 0 0
15.4478 0 0
15.4478 0 0
15.5439 0 0
15.5439 0 0
15.6401 0 0
15.6401 0 0
15.7363 0 0
15.7363 0 0
15.8325 0 0
15.8325 0 0
15.9287 0 0
15.9287 0 0
16.0249 0 0
16.0249 0 0
16.1211 0 0
16.1211 0 0
16.2173 0 0
16.2173 0 0
16.3135 0 0
16.3135 0 0
16.4097 0 0
16.4097 0 0
16.5059 0 0
16.5059 0 0
16.6021 0 0
16.6021 0 0
16.6982 0 0
16.6982 0 0
16.7944 0 0
16.7944 0 0
16.8906 0 0
16.8906 0 0
16.9868 0 0
16.9868 0 0
17.083 0 0
17.083 0 0
17.1792 0 0
17.1792 0 0
17.2754 0 0
17.2754 0 0
17.3716 0 0
17.3716 0 0
17.4678 0 0
17.4678 0 0
17.564 0 0
17.564 0 0
17.6602 0 0
17.6602 0 0
17.7563 0 0
17.7563 0 0
17.8525 0 0
17.8525 0 0
17.9487 0 0
17.9487 0 0
18.0449 0 0
18.0449 0 0
18.1411 0 0
18.1411 0 0
18.2373 0 0
18.2373 0 0
18.3335 0 0
18.3335 0 0
18.4297 0 0
18.4297 0 0
18.5259 0 0
18.5259 0 0
18.6221 0 0
18.6221 0 0
18.7183 0 0
18.7183 0 0
18.8145 0 0
18.8145 0 0
18.9106 0 0
18.9106 0 0
19.0068 0 0
19.0068 0 0
19.103 0 0
19.103 0 0
19.1992 0 0
19.1992 0 0
19.2954 0 0
19.2954 0 0
19.3916 0 0
19.3916 0 0
19.4878 0 0
19.4878 0 0
19.584 0 0
19.584 0 0
19.6802 0 0
19.6802 0 0
19.7764 0 0
19.7764 0 0
19.8726 0 0
19.8726 0 0
19.9688 0 0
19.9688 0 0
20.0649 0 0
20.0649 0 0
20.1611 0 0
20.1611 0 0
20.2573 0 0
20.2573 0 0
20.3535 0 0
20.3535 0 0
20.4497 0 0
20.4497 0 0
20.5459 0 0
20.5459 0 0
20.6421 0 0
20.6421 0 0
20.7383 0 0
20.7383 0 0
20.8345 0 0
20.8345 0 0
20.9307 0 0
20.9307 0 0
21.0269 0 0
21.0269 0 0
21.123 0 0
21.123 0 0
21.2192 0 0
21.2192 0 0
21.3154 0 0
21.3154 0 0
21.4116 0 0
21.4116 0 0
21.5078 0 0
21.5078 0 0
21.604 0 0
21.604 0 0
21.7002 0 0
21.7002 0 0
21.7964 0 0
21.7964 0 0
21.8926 0 0
21.8926 0 0
21.9888 0 0
21.9888 0 0
22.085 0 0
22.085 0 0
22.1812 0 0
22.1812 0 0
22.2773 0 0
22.2773 0 0
22.3735 0 0
22.3735 0 0
22.4697 0 0
22.4697 0 0
22.5659 0 0
22.5659 0 0
22.6621 0 0
22.6621 0 0
22.7583 0 0
22.7583 0 0
22.8545 0 0
22.8545 0 0
22.9507 0 0
22.9507 0 0
23.0469 0 0
23.0469 0 0
23.1431 0 0
23.1431 0 0
23.2393 0 0
23.2393 0 0
23.3354 0 0
23.3354 0 0
23.4316 0 0
23.4316 0 0
23.5278 0 0
23.5278 0 0
23.624 0 0
23.624 0 0
23.7202 0 0
23.7202 0 0
23.8164 0 0
23.8164 0 0
23.9126 0 0
23.9126 0 0
24.0088 0 0
24.0088 0 0
24.105 0 0
24.105 0 0
24.2012 0 0
24.2012 0 0
24.2974 0 0
24.2974 0 0
24.3936 0 0
24.3936 0 0
24.4897 0 0
24.4897 0 0
24.5859 0 0
24.5859 0 0
24.6821 0 0
24.6821 0 0
24.7783 0 0
24.7783 0 0
24.8745 0 0
24.8745 0 0
24.9707 0 0
24.9707 0 0
25.0669 0 0
25.0669 0 0
25.1631 0 0
25.1631 0 0
25.2593 0 0
25.2593 0 0
25.3555 0 0
25.3555 0 0
25.4517 0 0
25.4517 0 0
25.5479 0 0
25.5479 0 0
25.644 0 0
25.644 0 0
25.7402 0 0
25.7402 0 0
25.8364 0 0
25.8364 0 0
25.9326 0 0
25.9326 0 0
26.0288 0 0
26.0288 0 0
26.125 0 0
26.125 0 0
26.2212 0 0
26.2212 0 0
26.3174 0 0
26.3174 0 0
26.4136 0 0
26.4136 0 0
26.5098 0 0
26.5098 0 0
26.606 0 0
26.606 0 0
26.7021 0 0
26.7021 0 0
26.7983 0 0
26.7983 0 0
26.8945 0 0
26.8945 0 0
26.9907 0 0
26.9907 0 0
27.0869 0 0
27.0869 0 0
27.1831 0 0
27.1831 0 0
27.2793 0 0
27.2793 0 0
27.3755 0 0
27.3755 0 0
27.4717 0 0
27.4717 0 0
27.5679 0 0
27.5679 0 0
27.6641 0 0
27.6641 0 0
27.7603 0 0
27.7603 0 0
27.8564 0 0
27.8564 0 0
27.9526 0 0
27.9526 0 0
28.0488 0 0
28.0488 0 0
28.145 0 0
28.145 0 0
28.2412 0 0
28.2412 0 0
28.3374 0 0
28.3374 0 0
28.4336 0 0
28.4336 0 0
28.5298 0 0
28.5298 0 0
28.626 0 0
28.626 0 0
28.7222 0 0
28.7222 0 0
28.8184 0 0
28.8184 0 0
28.9146 0 0
28.9146 0 0
29.0107 0 0
29.0107 0 0
29.1069 0 0
29.1069 0 0
29.2031 0 0
29.2031 0 0
29.2993 0 0
29.2993 0 0
29.3955 0 0
29.3955 0 0
29.4917 0 0
29.4917 0 0
29.5879 0 0
29.5879 0 0
29.6841 0 0
29.6841 0 0
29.7803 0 0
29.7803 0 0
29.8765 0 0
29.8765 0 0
29.9727 0 0
29.9727 0 0
30.0688 0 0
30.0688 0 0
30.165 0 0
30.165 0 0
30.2612 0 0
30.2612 0 0
30.3574 0 0
30.3574 0 0
30.4536 0 0
30.4536 0 0
30.5498 0 0
30.5498 0 0
30.646 0 0
30.646 0 0
30.7422 0 0
30.7422 0 0
30.8384 0 0
30.8384 0 0
30.9346 0 0
30.9346 0 0
31.0308 0 0
31.0308 0 0
31.127 0 0
31.127 0 0
31.2231 0 0
31.2231 0 0
31.3193 0 0
31.3193 0 0
31.4155 0 0
31.4155 0 0
31.5117 0 0
31.5117 0 0
31.6079 0 0
31.6079 0 0
31.7041 0 0
31.7041 0 0
31.8003 0 0
31.8003 0 0
31.8965 0 0
31.8965 0 0
31.9927 0 0
31.9927 0 0
32.0889 0 0
32.0889 0 0
32.1851 0 0
32.1851 0 0
32.2812 0 0
32.2812 0 0
32.3774 0 0
32.3774 0 0
32.4736 0 0
32.4736 0 0
32.5698 0 0
32.5698 0 0
32.666 0 0
32.666 0 0
32.7622 0 0
32.7622 0 0
32.8584 0 0
32.8584 0 0
32.9546 0 0
32.9546 0 0
33.0508 0 0
33.0508 0 0
33.147 0 0
33.147 0 0
33.2432 0 0
33.2432 0 0
33.3394 0 0
33.3394 0 0
33.4355 0 0
33.4355 0 0
33.5317 0 0
33.5317 0 0
33.6279 0 0
33.6279 0 0
33.7241 0 0
33.7241 0 0
33.8203 0 0
33.8203 0 0
33.9165 0 0
33.9165 0 0
34.0127 0 0
34.0127 0 0
34.1089 0 0
34.1089 0 0
34.2051 0 0
34.2051 0 0
34.3013 0 0
34.3013 0 0
34.3975 0 0
34.3975 0 0
34.4937 0 0
34.4937 0 0
34.5898 0 0
34.5898 0 0
34.686 0 0
34.686 0 0
34.7822 0 0
34.7822 0 0
34.8784 0 0
34.8784 0 0
34.9746 0 0
34.9746 0 0
35.0708 0 0
35.0708 0 0
35.167 0 0
35.167 0 0
35.2632 0 0
35.2632 0 0
35.3594 0 0
35.3594 0 0
35.4556 0 0
35.4556 0 0
35.5518 0 0
35.5518 0 0
35.6479 0 0
35.6479 0 0
35.7441 0 0
35.7441 0 0
35.8403 0 0
35.8403 0 0
35.9365 0 0
35.9365 0 0
36.0327 0 0
36.0327 0 0
36.1289 0 0
36.1289 0 0
36.2251 0 0
36.2251 0 0
36.3213 0 0
36.3213 0 0
36.4175 0 0
36.4175 0 0
36.5137 0 0
36.5137 0 0
36.6099 0 0
36.6099 0 0
36.7061 0 0
36.7061 0 0
36.8022 0 0
36.8022 0 0
36.8984 0 0
36.8984 0 0
36.9946 0 0
36.9946 0 0
37.0908 0 0
37.0908 0 0
37.187 0 0
37.187 0 0
37.2832 0 0
37.2832 0 0
37.3794 0 0
37.3794 0 0
37.4756 0 0
37.4756 0 0
37.5718 0 0
37.5718 0 0
37.668 0 0
37.668 0 0
37.7642 0 0
37.7642 0 0
37.8604 0 0
37.8604 0 0
37.9565 0 0
37.9565 0 0
38.0527 0 0
38.0527 0 0
38.1489 0 0
38.1489 0 0
38.2451 0 0
38.2451 0 0
38.3413 0 0
38.3413 0 0
38.4375 0 0
38.4375 0 0
38.5337 0 0
38.5337 0 0
38.6299 0 0
38.6299 0 0
38.7261 0 0
38.7261 0 0
38.8223 0 0
38.8223 0 0
38.9185 0 0
38.9185 0 0
39.0146 0 0
39.0146 0 0
39.1108 0 0
39.1108 0 0
39.207 0 0
39.207 0 0
39.3032 0 0
39.3032 0 0
39.3994 0 0
39.3994 0 0
39.4956 0 0
39.4956 0 0
39.5918 0 0
39.5918 0 0
39.688 0 0
39.688 0 0
39.7842 0 0
39.7842 0 0
39.8804 0 0
39.8804 0 0
39.9766 0 0
39.9766 0 0
40.0728 0 0
40.0728 0 0
40.1689 0 0
40.1689 0 0
40.2651 0 0
40.2651 0 0
40.3613 0 0
40.3613 0 0
40.4575 0 0
40.4575 0 0
40.5537 0 0
40.5537 0 0
40.6499 0 0
40.6499 0 0
40.7461 0 0
40.7461 0 0
40.8423 0 0
40.8423 0 0
40.9385 0 0
40.9385 0 0
41.0347 0 0
41.0347 0 0
41.1309 0 0
41.1309 0 0
41.2271 0 0
41.2271 0 0
[...]
POINT_DATA 2048
SCALARS solution_0 double 1
LOOKUP_TABLE default
835503 765675 765675 696335 696335 628181 628181 561635 561635 496936 496936 434200 434200 373464 373464 314711 314711 257891 257891 202934 202934 149757 149757 98273.6 98273.6 48393.3 48393.3 27.5451 27.5451 -46909.8 -46909.8 -92501.3 -92501.3 -136825 -136825 -179956 -179956 -221963 -221963 -262910 -262910 -302858 -302858 -341864 -341864 -379978 -379978 -417250 -417250 -453724 -453724 -489441 -489441 -524439 -524439 -558755 -558755 -592420 -592420 -625465 -625465 -657918 -657918 -689804 -689804 -721148 -721148 -751972 -751972 -782295 -782295 -812138 -812138 -841517 -841517 -870448 -870448 -898947 -898947 -927028 -927028 -954703 -954703 -981984 -981984 -1.00888e+06 -1.00888e+06 -1.03541e+06 -1.03541e+06 -1.06157e+06 -1.06157e+06 -1.08738e+06 -1.08738e+06 -1.11284e+06 -1.11284e+06 -1.13797e+06 -1.13797e+06 -1.16276e+06 -1.16276e+06 -1.18723e+06 -1.18723e+06 -1.21138e+06 -1.21138e+06 -1.23522e+06 -1.23522e+06 -1.25875e+06 -1.25875e+06 -1.28197e+06 -1.28197e+06 -1.3049e+06 -1.3049e+06 -1.32754e+06 -1.32754e+06 -1.34988e+06 -1.34988e+06 -1.37194e+06 -1.37194e+06 -1.39371e+06 -1.39371e+06 -1.41521e+06 -1.41521e+06 -1.43642e+06 -1.43642e+06 -1.45737e+06 -1.45737e+06 -1.47804e+06 -1.47804e+06 -1.49845e+06 -1.49845e+06 -1.51858e+06 -1.51858e+06 -1.53846e+06 -1.53846e+06 -1.55807e+06 -1.55807e+06 -1.57742e+06 -1.57742e+06 -1.59651e+06 -1.59651e+06 -1.61534e+06 -1.61534e+06 -1.63392e+06 -1.63392e+06 -1.65225e+06 -1.65225e+06 -1.67032e+06 -1.67032e+06 -1.68815e+06 -1.68815e+06 -1.70572e+06 -1.70572e+06 -1.72305e+06 -1.72305e+06 -1.74013e+06 -1.74013e+06 -1.75696e+06 -1.75696e+06 -1.77355e+06 -1.77355e+06 -1.7899e+06 -1.7899e+06 -1.80601e+06 -1.80601e+06 -1.82187e+06 -1.82187e+06 -1.8375e+06 -1.8375e+06 -1.85288e+06 -1.85288e+06 -1.86803e+06 -1.86803e+06 -1.88294e+06 -1.88294e+06 -1.89761e+06 -1.89761e+06 -1.91205e+06 -1.91205e+06 -1.92626e+06 -1.92626e+06 -1.94023e+06 -1.94023e+06 -1.95397e+06 -1.95397e+06 -1.96748e+06 -1.96748e+06 -1.98076e+06 -1.98076e+06 -1.99381e+06 -1.99381e+06 -2.00663e+06 -2.00663e+06 -2.01922e+06 -2.01922e+06 -2.03159e+06 -2.03159e+06 -2.04373e+06 -2.04373e+06 -2.05564e+06 -2.05564e+06 -2.06734e+06 -2.06734e+06 -2.07881e+06 -2.07881e+06 -2.09006e+06 -2.09006e+06 -2.10108e+06 -2.10108e+06 -2.11189e+06 -2.11189e+06 -2.12248e+06 -2.12248e+06 -2.13285e+06 -2.13285e+06 -2.143e+06 -2.143e+06 -2.15294e+06 -2.15294e+06 -2.16266e+06 -2.16266e+06 -2.17217e+06 -2.17217e+06 -2.18147e+06 -2.18147e+06 -2.19056e+06 -2.19056e+06 -2.19943e+06 -2.19943e+06 -2.20809e+06 -2.20809e+06 -2.21655e+06 -2.21655e+06 -2.2248e+06 -2.2248e+06 -2.23284e+06 -2.23284e+06 -2.24068e+06 -2.24068e+06 -2.24831e+06 -2.24831e+06 -2.25574e+06 -2.25574e+06 -2.26297e+06 -2.26297e+06 -2.27e+06 -2.27e+06 -2.27683e+06 -2.27683e+06 -2.28346e+06 -2.28346e+06 -2.28989e+06 -2.28989e+06 -2.29613e+06 -2.29613e+06 -2.30217e+06 -2.30217e+06 -2.30802e+06 -2.30802e+06 -2.31368e+06 -2.31368e+06 -2.31914e+06 -2.31914e+06 -2.32442e+06 -2.32442e+06 -2.32951e+06 -2.32951e+06 -2.33441e+06 -2.33441e+06 -2.33913e+06 -2.33913e+06 -2.34366e+06 -2.34366e+06 -2.348e+06 -2.348e+06 -2.35217e+06 -2.35217e+06 -2.35615e+06 -2.35615e+06 -2.35996e+06 -2.35996e+06 -2.36359e+06 -2.36359e+06 -2.36704e+06 -2.36704e+06 -2.37031e+06 -2.37031e+06 -2.37341e+06 -2.37341e+06 -2.37634e+06 -2.37634e+06 -2.3791e+06 -2.3791e+06 -2.38169e+06 -2.38169e+06 -2.3841e+06 -2.3841e+06 -2.38635e+06 -2.38635e+06 -2.38844e+06 -2.38844e+06 -2.39036e+06 -2.39036e+06 -2.39212e+06 -2.39212e+06 -2.39371e+06 -2.39371e+06 -2.39515e+06 -2.39515e+06 -2.39642e+06 -2.39642e+06 -2.39754e+06 -2.39754e+06 -2.39851e+06 -2.39851e+06 -2.39931e+06 -2.39931e+06 -2.39997e+06 -2.39997e+06 -2.40047e+06 -2.40047e+06 -2.40082e+06 -2.40082e+06 -2.40102e+06 -2.40102e+06 -2.40108e+06 -2.40108e+06 -2.40099e+06 -2.40099e+06 -2.40075e+06 -2.40075e+06 -2.40037e+06 -2.40037e+06 -2.39985e+06 -2.39985e+06 -2.39918e+06 -2.39918e+06 -2.39838e+06 -2.39838e+06 -2.39744e+06 -2.39744e+06 -2.39637e+06 -2.39637e+06 -2.39515e+06 -2.39515e+06 -2.39381e+06 -2.39381e+06 -2.39233e+06 -2.39233e+06 -2.39072e+06 -2.39072e+06 -2.38899e+06 -2.38899e+06 -2.38712e+06 -2.38712e+06 -2.38513e+06 -2.38513e+06 -2.38301e+06 -2.38301e+06 -2.38077e+06 -2.38077e+06 -2.37841e+06 -2.37841e+06 -2.37592e+06 -2.37592e+06 -2.37332e+06 -2.37332e+06 -2.3706e+06 -2.3706e+06 -2.36776e+06 -2.36776e+06 -2.3648e+06 -2.3648e+06 -2.36173e+06 -2.36173e+06 -2.35855e+06 -2.35855e+06 -2.35526e+06 -2.35526e+06 -2.35186e+06 -2.35186e+06 -2.34835e+06 -2.34835e+06 -2.34473e+06 -2.34473e+06 -2.341e+06 -2.341e+06 -2.33718e+06 -2.33718e+06 -2.33324e+06 -2.33324e+06 -2.32921e+06 -2.32921e+06 -2.32508e+06 -2.32508e+06 -2.32084e+06 -2.32084e+06 -2.31651e+06 -2.31651e+06 -2.31209e+06 -2.31209e+06 -2.30756e+06 -2.30756e+06 -2.30295e+06 -2.30295e+06 -2.29824e+06 -2.29824e+06 -2.29344e+06 -2.29344e+06 -2.28855e+06 -2.28855e+06 -2.28357e+06 -2.28357e+06 -2.2785e+06 -2.2785e+06 -2.27335e+06 -2.27335e+06 -2.26811e+06 -2.26811e+06 -2.26279e+06 -2.26279e+06 -2.25739e+06 -2.25739e+06 -2.25191e+06 -2.25191e+06 -2.24634e+06 -2.24634e+06 -2.2407e+06 -2.2407e+06 -2.23498e+06 -2.23498e+06 -2.22919e+06 -2.22919e+06 -2.22332e+06 -2.22332e+06 -2.21737e+06 -2.21737e+06 -2.21136e+06 -2.21136e+06 -2.20527e+06 -2.20527e+06 -2.19911e+06 -2.19911e+06 -2.19288e+06 -2.19288e+06 -2.18659e+06 -2.18659e+06 -2.18023e+06 -2.18023e+06 -2.1738e+06 -2.1738e+06 -2.16731e+06 -2.16731e+06 -2.16076e+06 -2.16076e+06 -2.15414e+06 -2.15414e+06 -2.14747e+06 -2.14747e+06 -2.14073e+06 -2.14073e+06 -2.13394e+06 -2.13394e+06 -2.12709e+06 -2.12709e+06 -2.12018e+06 -2.12018e+06 -2.11321e+06 -2.11321e+06 -2.1062e+06 -2.1062e+06 -2.09913e+06 -2.09913e+06 -2.092e+06 -2.092e+06 -2.08483e+06 -2.08483e+06 -2.07761e+06 -2.07761e+06 -2.07034e+06 -2.07034e+06 -2.06301e+06 -2.06301e+06 -2.05565e+06 -2.05565e+06 -2.04824e+06 -2.04824e+06 -2.04078e+06 -2.04078e+06 -2.03328e+06 -2.03328e+06 -2.02573e+06 -2.02573e+06 -2.01815e+06 -2.01815e+06 -2.01052e+06 -2.01052e+06 -2.00285e+06 -2.00285e+06 -1.99515e+06 -1.99515e+06 -1.98741e+06 -1.98741e+06 -1.97963e+06 -1.97963e+06 -1.97181e+06 -1.97181e+06 -1.96396e+06 -1.96396e+06 -1.95608e+06 -1.95608e+06 -1.94816e+06 -1.94816e+06 -1.94021e+06 -1.94021e+06 -1.93222e+06 -1.93222e+06 -1.92421e+06 -1.92421e+06 -1.91617e+06 -1.91617e+06 -1.9081e+06 -1.9081e+06 -1.9e+06 -1.9e+06 -1.89187e+06 -1.89187e+06 -1.88372e+06 -1.88372e+06 -1.87554e+06 -1.87554e+06 -1.86734e+06 -1.86734e+06 -1.85912e+06 -1.85912e+06 -1.85087e+06 -1.85087e+06 -1.8426e+06 -1.8426e+06 -1.83431e+06 -1.83431e+06 -1.82599e+06 -1.82599e+06 -1.81766e+06 -1.81766e+06 -1.80931e+06 -1.80931e+06 -1.80094e+06 -1.80094e+06 -1.79256e+06 -1.79256e+06 -1.78415e+06 -1.78415e+06 -1.77573e+06 -1.77573e+06 -1.7673e+06 -1.7673e+06 -1.75885e+06 -1.75885e+06 -1.75039e+06 -1.75039e+06 -1.74192e+06 -1.74192e+06 -1.73343e+06 -1.73343e+06 -1.72493e+06 -1.72493e+06 -1.71642e+06 -1.71642e+06 -1.7079e+06 -1.7079e+06 -1.69937e+06 -1.69937e+06 -1.69083e+06 -1.69083e+06 -1.68229e+06 -1.68229e+06 -1.67373e+06 -1.67373e+06 -1.66517e+06 -1.66517e+06 -1.6566e+06 -1.6566e+06 -1.64803e+06 -1.64803e+06 -1.63945e+06 -1.63945e+06 -1.63087e+06 -1.63087e+06 -1.62229e+06 -1.62229e+06 -1.6137e+06 -1.6137e+06 -1.6051e+06 -1.6051e+06 -1.59651e+06 -1.59651e+06 -1.58792e+06 -1.58792e+06 -1.57932e+06 -1.57932e+06 -1.57072e+06 -1.57072e+06 -1.56213e+06 -1.56213e+06 -1.55353e+06 -1.55353e+06 -1.54494e+06 -1.54494e+06 -1.53635e+06 -1.53635e+06 -1.52776e+06 -1.52776e+06 -1.51917e+06 -1.51917e+06 -1.51059e+06 -1.51059e+06 -1.50201e+06 -1.50201e+06 -1.49343e+06 -1.49343e+06 -1.48486e+06 -1.48486e+06 -1.4763e+06 -1.4763e+06 -1.46774e+06 -1.46774e+06 -1.45919e+06 -1.45919e+06 -1.45064e+06 -1.45064e+06 -1.4421e+06 -1.4421e+06 -1.43357e+06 -1.43357e+06 -1.42505e+06 -1.42505e+06 -1.41654e+06 -1.41654e+06 -1.40804e+06 -1.40804e+06 -1.39954e+06 -1.39954e+06 -1.39106e+06 -1.39106e+06 -1.38258e+06 -1.38258e+06 -1.37412e+06 -1.37412e+06 -1.36567e+06 -1.36567e+06 -1.35722e+06 -1.35722e+06 -1.3488e+06 -1.3488e+06 -1.34038e+06 -1.34038e+06 -1.33198e+06 -1.33198e+06 -1.32358e+06 -1.32358e+06 -1.31521e+06 -1.31521e+06 -1.30684e+06 -1.30684e+06 -1.29849e+06 -1.29849e+06 -1.29016e+06 -1.29016e+06 -1.28184e+06 -1.28184e+06 -1.27353e+06 -1.27353e+06 -1.26525e+06 -1.26525e+06 -1.25697e+06 -1.25697e+06 -1.24871e+06 -1.24871e+06 -1.24047e+06 -1.24047e+06 -1.23225e+06 -1.23225e+06 -1.22404e+06 -1.22404e+06 -1.21585e+06 -1.21585e+06 -1.20768e+06 -1.20768e+06 -1.19953e+06 -1.19953e+06 -1.19139e+06 -1.19139e+06 -1.18327e+06 -1.18327e+06 -1.17518e+06 -1.17518e+06 -1.1671e+06 -1.1671e+06 -1.15904e+06 -1.15904e+06 -1.151e+06 -1.151e+06 -1.14298e+06 -1.14298e+06 -1.13498e+06 -1.13498e+06 -1.127e+06 -1.127e+06 -1.11904e+06 -1.11904e+06 -1.1111e+06 -1.1111e+06 -1.10318e+06 -1.10318e+06 -1.09528e+06 -1.09528e+06 -1.08741e+06 -1.08741e+06 -1.07955e+06 -1.07955e+06 -1.07172e+06 -1.07172e+06 -1.06391e+06 -1.06391e+06 -1.05613e+06 -1.05613e+06 -1.04836e+06 -1.04836e+06 -1.04062e+06 -1.04062e+06 -1.0329e+06 -1.0329e+06 -1.0252e+06 -1.0252e+06 -1.01753e+06 -1.01753e+06 -1.00988e+06 -1.00988e+06 -1.00226e+06 -1.00226e+06 -994653 -994653 -987074 -987074 -979520 -979520 -971990 -971990 -964484 -964484 -957003 -957003 -949546 -949546 -942114 -942114 -934707 -934707 -927325 -927325 -919968 -919968 -912636 -912636 -905330 -905330 -898049 -898049 -890794 -890794 -883565 -883565 -876361 -876361 -869183 -869183 -862032 -862032 -854906 -854906 -847807 -847807 -840734 -840734 -833687 -833687 -826667 -826667 -819673 -819673 -812706 -812706 -805766 -805766 -798852 -798852 -791966 -791966 -785106 -785106 -778273 -778273 -771467 -771467 -764688 -764688 -757936 -757936 -751211 -751211 -744514 -744514 -737843 -737843 -731200 -731200 -724585 -724585 -717996 -717996 -711435 -711435 -704902 -704902 -698396 -698396 -691917 -691917 -685466 -685466 -679042 -679042 -672646 -672646 -666277 -666277 -659936 -659936 -653622 -653622 -647336 -647336 -641078 -641078 -634847 -634847 -628644 -628644 -622468 -622468 -616320 -616320 -610199 -610199 -604106 -604106 -598041 -598041 -592003 -592003 -585992 -585992 -580009 -580009 -574054 -574054 -568126 -568126 -562225 -562225 -556352 -556352 -550506 -550506 -544688 -544688 -538897 -538897 -533133 -533133 -527397 -527397 -521688 -521688 -516006 -516006 -510352 -510352 -504724 -504724 -499124 -499124 -493550 -493550 -488004 -488004 -482485 -482485 -476993 -476993 -471527 -471527 -466089 -466089 -460677 -460677 -455292 -455292 -449934 -449934 -444602 -444602 -439297 -439297 -434019 -434019 -428767 -428767 -423541 -423541 -418342 -418342 -413169 -413169 -408023 -408023 -402902 -402902 -397808 -397808 -392740 -392740 -387698 -387698 -382682 -382682 -377692 -377692 -372727 -372727 -367788 -367788 -362875 -362875 -357988 -357988 -353126 -353126 -348290 -348290 -343479 -343479 -338693 -338693 -333933 -333933 -329197 -329197 -324487 -324487 -319802 -319802 -315142 -315142 -310507 -310507 -305896 -305896 -301310 -301310 -296749 -296749 -292213 -292213 -287701 -287701 -283213 -283213 -278750 -278750 -274310 -274310 -269895 -269895 -265504 -265504 -261137 -261137 -256794 -256794 -252475 -252475 -248180 -248180 -243908 -243908 -239660 -239660 -235435 -235435 -231233 -231233 -227055 -227055 -222901 -222901 -218769 -218769 -214660 -214660 -210574 -210574 -206512 -206512 -202471 -202471 -198454 -198454 -194459 -194459 -190487 -190487 -186537 -186537 -182610 -182610 -178704 -178704 -174821 -174821 -170960 -170960 -167121 -167121 -163304 -163304 -159509 -159509 -155735 -155735 -151983 -151983 -148253 -148253 -144544 -144544 -140856 -140856 -137189 -137189 -133544 -133544 -129920 -129920 -126317 -126317 -122734 -122734 -119173 -119173 -115632 -115632 -112112 -112112 -108612 -108612 -105133 -105133 -101674 -101674 -98235.4 -98235.4 -94816.9 -94816.9 -91418.6 -91418.6 -88040.2 -88040.2 -84681.7 -84681.7 -81343 -81343 -78024 -78024 -74724.6 -74724.6 -71444.8 -71444.8 -68184.5 -68184.5 -64943.5 -64943.5 -61721.7 -61721.7 -58519.2 -58519.2 -55335.7 -55335.7 -52171.2 -52171.2 -49025.7 -49025.7 -45899 -45899 -42791 -42791 -39701.7 -39701.7 -36630.9 -36630.9 -33578.6 -33578.6 -30544.7 -30544.7 -27529.1 -27529.1 -24531.7 -24531.7 -21552.4 -21552.4 -18591.2 -18591.2 -15647.9 -15647.9 -12722.5 -12722.5 -9814.91 -9814.91 -6924.99 -6924.99 -4052.69 -4052.69 -1197.91 -1197.91 1639.42 1639.42 4459.38 4459.38 7262.07 7262.07 10047.6 10047.6 12816 12816 15567.3 15567.3 18301.7 18301.7 21019.3 21019.3 23720 23720 26404.1 26404.1 29071.5 29071.5 31722.4 31722.4 34356.8 34356.8 36974.9 36974.9 39576.7 39576.7 42162.2 42162.2 44731.6 44731.6 47284.9 47284.9 49822.2 49822.2 52343.7 52343.7 54849.3 54849.3 57339.1 57339.1 59813.3 59813.3 62271.8 62271.8 64714.9 64714.9 67142.4 67142.4 69554.6 69554.6 71951.5 71951.5 74333.2 74333.2 76699.7 76699.7 79051.1 79051.1 81387.5 81387.5 83709 83709 86015.6 86015.6 88307.4 88307.4 90584.5 90584.5 92846.9 92846.9 95094.8 95094.8 97328.1 97328.1 99547 99547 101751 101751 103942 103942 106118 106118 108279 108279 110427 110427 112561 112561 114680 114680 116786 116786 118878 118878 120956 120956 123020 123020 125071 125071 127108 127108 129132 129132 131142 131142 133139 133139 135122 135122 137092 137092 139049 139049 140993 140993 142923 142923 144841 144841 146746 146746 148637 148637 150516 150516 152382 152382 154235 154235 156076 156076 157903 157903 159719 159719 161521 161521 163311 163311 165089 165089 166854 166854 168608 168608 170348 170348 172077 172077 173793 173793 175497 175497 177189 177189 178870 178870 180538 180538 182194 182194 183838 183838 185471 185471 187091 187091 188700 188700 190297 190297 191883 191883 193457 193457 195019 195019 196570 196570 198110 198110 199637 199637 201154 201154 202659 202659 204153 204153 205636 205636 207107 207107 208567 208567 210016 210016 211454 211454 212881 212881 214297 214297 215702 215702 217096 217096 218479 218479 219851 219851 221212 221212 222562 222562 223902 223902 225231 225231 226549 226549 227856 227856 229153 229153 230439 230439 231715 231715 232980 232980 234234 234234 235478 235478 236712 236712 237935 237935 239148 239148 240350 240350 241542 241542 242724 242724 243895 243895 245056 245056 246207 246207 247348 247348 248478 248478 249598 249598 250708 250708 251808 251808 252898 252898 253978 253978 255048 255048 256108 256108 257158 257158 258197 258197 259227 259227 260247 260247 261257 261257 262257 262257 263247 263247 264228 264228 265198 265198 266159 266159 267110 267110 268051 268051 268982 268982 269904 269904 270816 270816 271718 271718 272610 272610 273493 273493 274366 274366 275230 275230 276084 276084 276928 276928 277762 277762 278587 278587 279403 279403 280208 280208 281005 281005 281791 281791 282568 282568 283336 283336 284094 284094 284843 284843 285582 285582 286312 286312 287032 287032 287742 287742 288444 288444 289136 289136 289818 289818 290491 290491 291154 291154 291809 291809 292453 292453 293089 293089 293715 293715 294331 294331 294938 294938 295536 295536 296125 296125 296704 296704 297274 297274 297834 297834 298385 298385 298927 298927 299459 299459 299982 299982 300496 300496 301001 301001 301496 301496 301982 301982 302458 302458 302926 302926 303384 303384 303833 303833 304272 304272 304702 304702 305123 305123 305535 305535 305937 305937 306330 306330 306714 306714 307089 307089 307454 307454 307810 307810 308157 308157 308495 308495 308823 308823 309142 309142 309452 309452 309753 309753 310044 310044 310326 310326 310599 310599 310863 310863 311118 311118 311363 311363 311599 311599 311826 311826 312043 312043 312252 312252 312451 312451 312641 312641 312822 312822 312993 312993 313156 313156 313309 313309 313453 313453 313588 313588 313713 313713 313830 313830 313937 313937 314035 314035 314124 314124 314204 314204 314275 314275 314336 314336 314388 314388 314431 314431 314465 314465 314490 314490 314506 314506 314513 314513 314510 314510 314498 314498 314478 314478 314448 314448 314409 314409 314361 314361 314304 314304 314237 314237 314162 314162 314078 314078 313984 313984 313882 313882 313770 313770 313650 313650 313520 313520 313382 313382 313235 313235 313078 313078 312913 312913 312738 312738 312555 312555 312363 312363 312162 312162 311952 311952 311733 311733 311505 311505 311268 311268 311023 311023 310768 310768 310505 310505 310233 310233 309953 309953 309663 309663 309365 309365 309058 309058 308743 308743 308419 308419 308086 308086 307744 307744 307394 307394 307036 307036 306669 306669 306293 306293 305909 305909 305516 305516 305115 305115 304706 304706 304288 304288 303862 303862 303428 303428 302985 302985 302534 302534 302075 302075 301607 301607 301132 301132 300648 300648 300156 300156 299657 299657 299149 299149 298633 298633 298110 298110 297578 297578 297039 297039 296492 296492 295938 295938 295375 295375 294805 294805 294227 294227 293642 293642 293050 293050 292450 292450 291842 291842 291227 291227 290605 290605 289976 289976 289340 289340 288696 288696 288046 288046 287389 287389 286724 286724 286053 286053 285375 285375 284691 284691 283999 283999 283302 283302 282597 282597 281887 281887 281170 281170 280446 280446 279717 279717 278981 278981 278240 278240 277492 277492 276739 276739 275980 275980 275215 275215 274444 274444 273668 273668 272887 272887 272100 272100 271308 271308 270512 270512 269710 269710 268903 268903 268091 268091 267274 267274 266453 266453 265628 265628 264798 264798 263964 263964 263126 263126 262283 262283 261437 261437 260587 260587 259733 259733 258876 258876 258015 258015 257151 257151 256284 256284 255413 255413 254540 254540 253664 253664 252786 252786 251905 251905 251021 251021 250136 250136 249248 249248 248358 248358 247467 247467 246574 246574 245680 245680 244784 244784 243888 243888 242990 242990 242091 242091 241192 241192 240293 240293 239393 239393 238493 238493 237594 237594 236694 236694 235795 235795 234897 234897 233999 233999 233103 233103 232207 232207 231313 231313 230421 230421 229531 229531 228642 228642 227756 227756 226872 226872 225991 225991 225113 225113 224238 224238 223366 223366 222498 222498 221634 221634 220773 220773 219917 219917 219066 219066 218219 218219 217377 217377 216540 216540 215709 215709 214883 214883 214064 214064 213251 213251 212444 212444 211644 211644 210851 210851 210065 210065 209287 209287 208517 208517 207755 207755 207002 207002 206257 206257 205521 205521 204795 204795 204078 204078 203371 203371 202674 202674 201988 201988 201313 201313 200649 200649 199997 199997 199356 199356 198728 198728 198112 198112 197508 197508 196918 196918 196342 196342 195779 195779 195231 195231 194697 194697 194178 194178 193675 193675 193187 193187 192715 192715 192259 192259 191821 191821 191399 191399 190995 190995 190609 190609 190242 190242 189893 189893 189563 189563 189253 
SCALARS solution_1 double 1
LOOKUP_TABLE default