# vtk DataFile Version 3.0
#This file was generated by the deal.II library on 2020/9/1 at 15:07:55
ASCII
DATASET UNSTRUCTURED_GRID

POINTS 2048 double
1.5 0 0
1.59619 0 0
1.59619 0 0
1.69238 0 0
1.69238 0 0
1.78857 0 0
1.78857 0 0
1.88477 0 0
1.88477 0 0
1.98096 0 0
1.98096 0 0
2.07715 0 0
2.07715 0 0
2.17334 0 0
2.17334 0 0
2.26953 0 0
2.26953 0 0
2.36572 0 0
2.36572 0 0
2.46191 0 0
2.46191 0 0
2.55811 0 0
2.55811 0 0
2.6543 0 0
2.6543 0 0
2.75049 0 0
2.75049 0 0
2.84668 0 0
2.84668 0 0
2.94287 0 0
2.94287 0 0
3.03906 0 0
3.03906 0 0
3.13525 0 0
3.13525 0 0
3.23145 0 0
3.23145 0 0
3.32764 0 0
3.32764 0 0
3.42383 0 0
3.42383 0 0
3.52002 0 0
3.52002 0 0
3.61621 0 0
3.61621 0 0
3.7124 0 0
3.7124 0 0
3.80859 0 0
3.80859 0 0
3.90479 0 0
3.90479 0 0
4.00098 0 0
4.00098 0 0
4.09717 0 0
4.09717 0 0
4.19336 0 0
4.19336 0 0
4.28955 0 0
4.28955 0 0
4.38574 0 0
4.38574 0 0
4.48193 0 0
4.48193 0 0
4.57812 0 0
4.57812 0 0
4.67432 0 0
4.67432 0 0
4.77051 0 0
4.77051 0 0
4.8667 0 0
4.8667 0 0
4.96289 0 0
4.96289 0 0
5.05908 0 0
5.05908 0 0
5.15527 0 0
5.15527 0 0
5.25146 0 0
5.25146 0 0
5.34766 0 0
5.34766 0 0
5.44385 0 0
5.44385 0 0
5.54004 0 0
5.54004 0 0
5.63623 0 0
5.63623 0 0
5.73242 0 0
5.73242 0 0
5.82861 0 0
5.82861 0 0
5.9248 0 0
5.9248 0 0
6.021 0 0
6.021 0 0
6.11719 0 0
6.11719 0 0
6.21338 0 0
6.21338 0 0
6.30957 0 0
6.30957 0 0
6.40576 0 0
6.40576 0 0
6.50195 0 0
6.50195 0 0
6.59814 0 0
6.59814 0 0
6.69434 0 0
6.69434 0 0
6.79053 0 0
6.79053 0 0
6.88672 0 0
6.88672 0 0
6.98291 0 0
6.98291 0 0
7.0791 0 0
7.0791 0 0
7.17529 0 0
7.17529 0 0
7.27148 0 0
7.27148 0 0
7.36768 0 0
7.36768 0 0
7.46387 0 0
7.46387 0 0
7.56006 0 0
7.56006 0 0
7.65625 0 0
7.65625 0 0
7.75244 0 0
7.75244 0 0
7.84863 0 0
7.84863 0 0
7.94482 0 0
7.94482 0 0
8.04102 0 0
8.04102 0 0
8.13721 0 0
8.13721 0 0
8.2334 0 0
8.2334 0 0
8.32959 0 0
8.32959 0 0
8.42578 0 0
8.42578 0 0
8.52197 0 0
8.52197 0 0
8.61816 0 0
8.61816 0 0
8.71436 0 0
8.71436 0 0
8.81055 0 0
8.81055 0 0
8.90674 0 0
8.90674 0 0
9.00293 0 0
9.00293 0 0
9.09912 0 0
9.09912 0 0
9.19531 0 0
9.19531 0 0
9.2915 0 0
9.2915 0 0
9.3877 0 0
9.3877 0 0
9.48389 0 0
9.48389 0 0
9.58008 0 0
9.58008 0 0
9.67627 0 0
9.67627 0 0
9.77246 0 0
9.77246 0 0
9.86865 0 0
9.86865 0 0
9.96484 0 0
9.96484 0 0
10.061 0 0
10.061 0 0
10.1572 0 0
10.1572 0 0
10.2534 0 0
10.2534 0 0
10.3496 0 0
10.3496 0 0
10.4458 0 0
10.4458 0 0
10.542 0 0
10.542 0 0
10.6382 0 0
10.6382 0 0
10.7344 0 0
10.7344 0 0
10.8306 0 0
10.8306 0 0
10.9268 0 0
10.9268 0 0
11.0229 0 0
11.0229 0 0
11.1191 0 0
11.1191 0 0
11.2153 0 0
11.2153 0 0
11.3115 0 0
11.3115 0 0
11.4077 0 0
11.4077 0 0
11.5039 0 0
11.5039 0 0
11.6001 0 0
11.6001 0 0
11.6963 0 0
11.6963 0 0
11.7925 0 0
11.7925 0 0
11.8887 0 0
11.8887 0 0
11.9849 0 0
11.9849 0 0
12.0811 0 0
12.0811 0 0
12.1772 0 0
12.1772 0 0
12.2734 0 0
12.2734 0 0
12.3696 0 0
12.3696 0 0
12.4658 0 0
12.4658 0 0
12.562 0 0
12.562 0 0
12.6582 0 0
12.6582 0 0
12.7544 0 0
12.7544 0 0
12.8506 0 0
12.8506 0 0
12.9468 0 0
12.9468 0 0
13.043 0 0
13.043 0 0
13.1392 0 0
13.1392 0 0
13.2354 0 0
13.2354 0 0
13.3315 0 0
13.3315 0 0
13.4277 0 0
13.4277 0 0
13.5239 0 0
13.5239 0 0
13.6201 0 0
13.6201 0 0
13.7163 0 0
13.7163 0 0
13.8125 0 0
13.8125 0 0
13.9087 0 0
13.9087 0 0
14.0049 0 0
14.0049 0 0
14.1011 0 0
14.1011 0 0
14.1973 0 0
14.1973 0 0
14.2935 0 0
14.2935 0 0
14.3896 0 0
14.3896 0 0
14.4858 0 0
14.4858 0 0
14.582 0 0
14.582 0 0
14.6782 0 0
14.6782 0 0
14.7744 0 0
14.7744 0 0
14.8706 0 0
14.8706 0 0
14.9668 0 0
14.9668 0 0
15.063 0 0
15.063 0 0
15.1592 0 0
15.1592 0 0
15.2554 0 0
15.2554 0 0
15.3516 0 0
15.3516 0 0
15.4478 0 0
15.4478 0 0
15.5439 0 0
15.5439 0 0
15.6401 0 0
15.6401 0 0
15.7363 0 0
15.7363 0 0
15.8325 0 0
15.8325 0 0
15.9287 0 0
15.9287 0 0
16.0249 0 0
16.0249 0 0
16.1211 0 0
16.1211 0 0
16.2173 0 0
16.2173 0 0
16.3135 0 0
16.3135 0 0
16.4097 0 0
16.4097 0 0
16.5059 0 0
16.5059 0 0
16.6021 0 0
16.6021 0 0
16.6982 0 0
16.6982 0 0
16.7944 0 0
16.7944 0 0
16.8906 0 0
16.8906 0 0
16.9868 0 0
16.9868 0 0
17.083 0 0
17.083 0 0
17.1792 0 0
17.1792 0 0
17.2754 0 0
17.2754 0 0
17.3716 0 0
17.3716 0 0
17.4678 0 0
17.4678 0 0
17.564 0 0
17.564 0 0
17.6602 0 0
17.6602 0 0
17.7563 0 0
17.7563 0 0
17.8525 0 0
17.8525 0 0
17.9487 0 0
17.9487 0 0
18.0449 0 0
18.0449 0 0
18.1411 0 0
18.1411 0 0
18.2373 0 0
18.2373 0 0
18.3335 0 0
18.3335 0 0
18.4297 0 0
18.4297 0 0
18.5259 0 0
18.5259 0 0
18.6221 0 0
18.6221 0 0
18.7183 0 0
18.7183 0 0
18.8145 0 0
18.8145 0 0
18.9106 0 0
18.9106 0 0
19.0068 0 0
19.0068 0 0
19.103 0 0
19.103 0 0
19.1992 0 0
19.1992 0 0
19.2954 0 0
19.2954 0 0
19.3916 0 0
19.3916 0 0
19.4878 0 0
19.4878 0 0
19.584 0 0
19.584 0 0
19.6802 0 0
19.6802 0 0
19.7764 0 0
19.7764 0 0
19.8726 0 0
19.8726 0 0
19.9688 0 0
19.9688 0 0
20.0649 0 0
20.0649 0 0
20.1611 0 0
20.1611 0 0
20.2573 0 0
20.2573 0 0
20.3535 0 0
20.3535 0 0
20.4497 0 0
20.4497 0 0
20.5459 0 0
20.5459 0 0
20.6421 0 0
20.6421 0 0
20.7383 0 0
20.7383 0 0
20.8345 0 0
20.8345 0 0
20.9307 0 0
20.9307 0 0
21.0269 0 0
21.0269 0 0
21.123 0 0
21.123 0 0
21.2192 0 0
21.2192 0 0
21.3154 0 0
21.3154 0 0
21.4116 0 0
21.4116 0 0
21.5078 0 0
21.5078 0 0
21.604 0 0
21.604 0 0
21.7002 0 0
21.7002 0 0
21.7964 0 0
21.7964 0 0
21.8926 0 0
21.8926 0 0
21.9888 0 0
21.9888 0 0
22.085 0 0
22.085 0 0
22.1812 0 0
22.1812 0 0
22.2773 0 0
22.2773 0 0
22.3735 0 0
22.3735 0 0
22.4697 0 0
22.4697 0 0
22.5659 0 0
22.5659 0 0
22.6621 0 0
22.6621 0 0
22.7583 0 0
22.7583 0 0
22.8545 0 0
22.8545 0 0
22.9507 0 0
22.9507 0 0
23.0469 0 0
23.0469 0 0
23.1431 0 0
23.1431 0 0
23.2393 0 0
23.2393 0 0
23.3354 0 0
23.3354 0 0
23.4316 0 0
23.4316 0 0
23.5278 0 0
23.5278 0 0
23.624 0 0
23.624 0 0
23.7202 0 0
23.7202 0 0
23.8164 0 0
23.8164 0 0
23.9126 0 0
23.9126 0 0
24.0088 0 0
24.0088 0 0
24.105 0 0
24.105 0 0
24.2012 0 0
24.2012 0 0
24.2974 0 0
24.2974 0 0
24.3936 0 0
24.3936 0 0
24.4897 0 0
24.4897 0 0
24.5859 0 0
24.5859 0 0
24.6821 0 0
24.6821 0 0
24.7783 0 0
24.7783 0 0
24.8745 0 0
24.8745 0 0
24.9707 0 0
24.9707 0 0
25.0669 0 0
25.0669 0 0
25.1631 0 0
25.1631 0 0
25.2593 0 0
25.2593 0 0
25.3555 0 0
25.3555 0 0
25.4517 0 0
25.4517 0 0
25.5479 0 0
25.5479 0 0
25.644 0 0
25.644 0 0
25.7402 0 0
25.7402 0 0
25.8364 0 0
25.8364 0 0
25.9326 0 0
25.9326 0 0
26.0288 0 0
26.0288 0 0
26.125 0 0
26.125 0 0
26.2212 0 0
26.2212 0 0
26.3174 0 0
26.3174 0 0
26.4136 0 0
26.4136 0 0
26.5098 0 0
26.5098 0 0
26.606 0 0
26.606 0 0
26.7021 0 0
26.7021 0 0
26.7983 0 0
26.7983 0 0
26.8945 0 0
26.8945 0 0
26.9907 0 0
26.9907 0 0
27.0869 0 0
27.0869 0 0
27.1831 0 0
27.1831 0 0
27.2793 0 0
27.2793 0 0
27.3755 0 0
27.3755 0 0
27.4717 0 0
27.4717 0 0
27.5679 0 0
27.5679 0 0
27.6641 0 0
27.6641 0 0
27.7603 0 0
27.7603 0 0
27.8564 0 0
27.8564 0 0
27.9526 0 0
27.9526 0 0
28.0488 0 0
28.0488 0 0
28.145 0 0
28.145 0 0
28.2412 0 0
28.2412 0 0
28.3374 0 0
28.3374 0 0
28.4336 0 0
28.4336 0 0
28.5298 0 0
28.5298 0 0
28.626 0 0
28.626 0 0
28.7222 0 0
28.7222 0 0
28.8184 0 0
28.8184 0 0
28.9146 0 0
28.9146 0 0
29.0107 0 0
29.0107 0 0
29.1069 0 0
29.1069 0 0
29.2031 0 0
29.2031 0 0
29.2993 0 0
29.2993 0 0
29.3955 0 0
29.3955 0 0
29.4917 0 0
29.4917 0 0
29.5879 0 0
29.5879 0 0
29.6841 0 0
29.6841 0 0
29.7803 0 0
29.7803 0 0
29.8765 0 0
29.8765 0 0
29.9727 0 0
29.9727 0 0
30.0688 0 0
30.0688 0 0
30.165 0 0
30.165 0 0
30.2612 0 0
30.2612 0 0
30.3574 0 0
30.3574 0 0
30.4536 0 0
30.4536 0 0
30.5498 0 0
30.5498 0 0
30.646 0 0
30.646 0 0
30.7422 0 0
30.7422 0 0
30.8384 0 0
30.8384 0 0
30.9346 0 0
30.9346 0 0
31.0308 0 0
31.0308 0 0
31.127 0 0
31.127 0 0
31.2231 0 0
31.2231 0 0
31.3193 0 0
31.3193 0 0
31.4155 0 0
31.4155 0 0
31.5117 0 0
31.5117 0 0
31.6079 0 0
31.6079 0 0
31.7041 0 0
31.7041 0 0
31.8003 0 0
31.8003 0 0
31.8965 0 0
31.8965 0 0
31.9927 0 0
31.9927 0 0
32.0889 0 0
32.0889 0 0
32.1851 0 0
32.1851 0 0
32.2812 0 0
32.2812 0 0
32.3774 0 0
32.3774 0 0
32.4736 0 0
32.4736 0 0
32.5698 0 0
32.5698 0 0
32.666 0 0
32.666 0 0
32.7622 0 0
32.7622 0 0
32.8584 0 0
32.8584 0 0
32.9546 0 0
32.9546 0 0
33.0508 0 0
33.0508 0 0
33.147 0 0
33.147 0 0
33.2432 0 0
33.2432 0 0
33.3394 0 0
33.3394 0 0
33.4355 0 0
33.4355 0 0
33.5317 0 0
33.5317 0 0
33.6279 0 0
33.6279 0 0
33.7241 0 0
33.7241 0 0
33.8203 0 0
33.8203 0 0
33.9165 0 0
33.9165 0 0
34.0127 0 0
34.0127 0 0
34.1089 0 0
34.1089 0 0
34.2051 0 0
34.2051 0 0
34.3013 0 0
34.3013 0 0
34.3975 0 0
34.3975 0 0
34.4937 0 0
34.4937 0 0
34.5898 0 0
34.5898 0 0
34.686 0 0
34.686 0 0
34.7822 0 0
34.7822 0 0
34.8784 0 0
34.8784 0 0
34.9746 0 0
34.9746 0 0
35.0708 0 0
35.0708 0 0
35.167 0 0
35.167 0 0
35.2632 0 0
35.2632 0 0
35.3594 0 0
35.3594 0 0
35.4556 0 0
35.4556 0 0
35.5518 0 0
35.5518 0 0
35.6479 0 0
35.6479 0 0
35.7441 0 0
35.7441 0 0
35.8403 0 0
35.8403 0 0
35.9365 0 0
35.9365 0 0
36.0327 0 0
36.0327 0 0
36.1289 0 0
36.1289 0 0
36.2251 0 0
36.2251 0 0
36.3213 0 0
36.3213 0 0
36.4175 0 0
36.4175 0 0
36.5137 0 0
36.5137 0 0
36.6099 0 0
36.6099 0 0
36.7061 0 0
36.7061 0 0
36.8022 0 0
36.8022 0 0
36.8984 0 0
36.8984 0 0
36.9946 0 0
36.9946 0 0
37.0908 0 0
37.0908 0 0
37.187 0 0
37.187 0 0
37.2832 0 0
37.2832 0 0
37.3794 0 0
37.3794 0 0
37.4756 0 0
37.4756 0 0
37.5718 0 0
37.5718 0 0
37.668 0 0
37.668 0 0
37.7642 0 0
37.7642 0 0
37.8604 0 0
37.8604 0 0
37.9565 0 0
37.9565 0 0
38.0527 0 0
38.0527 0 0
38.1489 0 0
38.1489 0 0
38.2451 0 0
38.2451 0 0
38.3413 0 0
38.3413 0 0
38.4375 0 0
38.4375 0 0
38.5337 0 0
38.5337 0 0
38.6299 0 0
38.6299 0 0
38.7261 0 0
38.7261 0 0
38.8223 0 0
38.8223 0 0
38.9185 0 0
38.9185 0 0
39.0146 0 0
39.0146 0 0
39.1108 0 0
39.1108 0 0
39.207 0 0
39.207 0 0
39.3032 0 0
39.3032 0 0
39.3994 0 0
39.3994 0 0
39.4956 0 0
39.4956 0 0
39.5918 0 0
39.5918 0 0
39.688 0 0
39.688 0 0
39.7842 0 0
39.7842 0 0
39.8804 0 0
39.8804 0 0
39.9766 0 0
39.9766 0 0
40.0728 0 0
40.0728 0 0
40.1689 0 0
40.1689 0 0
40.2651 0 0
40.2651 0 0
40.3613 0 0
40.3613 0 0
40.4575 0 0
40.4575 0 0
40.5537 0 0
40.5537 0 0
40.6499 0 0
40.6499 0 0
40.7461 0 0
40.7461 0 0
40.8423 0 0
40.8423 0 0
40.9385 0 0
40.9385 0 0
41.0347 0 0
41.0347 0 0
41.1309 0 0
41.1309 0 0
41.2271 0 0
41.2271 0 0
[...]
POINT_DATA 2048
SCALARS solution_0 double 1
LOOKUP_TABLE default
2.80584e+10 2.75026e+10 2.75026e+10 2.70234e+10 2.70234e+10 2.66093e+10 2.66093e+10 2.62509e+10 2.62509e+10 2.59399e+10 2.59399e+10 2.56692e+10 2.56692e+10 2.5433e+10 2.5433e+10 2.52261e+10 2.52261e+10 2.50442e+10 2.50442e+10 2.48836e+10 2.48836e+10 2.47411e+10 2.47411e+10 2.4614e+10 2.4614e+10 2.45e+10 2.45e+10 2.43969e+10 2.43969e+10 2.43032e+10 2.43032e+10 2.42172e+10 2.42172e+10 2.41377e+10 2.41377e+10 2.40634e+10 2.40634e+10 2.39935e+10 2.39935e+10 2.3927e+10 2.3927e+10 2.38632e+10 2.38632e+10 2.38014e+10 2.38014e+10 2.3741e+10 2.3741e+10 2.36816e+10 2.36816e+10 2.36227e+10 2.36227e+10 2.35639e+10 2.35639e+10 2.35048e+10 2.35048e+10 2.34453e+10 2.34453e+10 2.3385e+10 2.3385e+10 2.33237e+10 2.33237e+10 2.32613e+10 2.32613e+10 2.31975e+10 2.31975e+10 2.31322e+10 2.31322e+10 2.30654e+10 2.30654e+10 2.29969e+10 2.29969e+10 2.29265e+10 2.29265e+10 2.28544e+10 2.28544e+10 2.27803e+10 2.27803e+10 2.27043e+10 2.27043e+10 2.26264e+10 2.26264e+10 2.25464e+10 2.25464e+10 2.24644e+10 2.24644e+10 2.23803e+10 2.23803e+10 2.22943e+10 2.22943e+10 2.22062e+10 2.22062e+10 2.21161e+10 2.21161e+10 2.2024e+10 2.2024e+10 2.19298e+10 2.19298e+10 2.18338e+10 2.18338e+10 2.17357e+10 2.17357e+10 2.16358e+10 2.16358e+10 2.1534e+10 2.1534e+10 2.14303e+10 2.14303e+10 2.13248e+10 2.13248e+10 2.12175e+10 2.12175e+10 2.11084e+10 2.11084e+10 2.09976e+10 2.09976e+10 2.08852e+10 2.08852e+10 2.07711e+10 2.07711e+10 2.06554e+10 2.06554e+10 2.05382e+10 2.05382e+10 2.04194e+10 2.04194e+10 2.02992e+10 2.02992e+10 2.01776e+10 2.01776e+10 2.00545e+10 2.00545e+10 1.99302e+10 1.99302e+10 1.98045e+10 1.98045e+10 1.96776e+10 1.96776e+10 1.95494e+10 1.95494e+10 1.94201e+10 1.94201e+10 1.92897e+10 1.92897e+10 1.91581e+10 1.91581e+10 1.90255e+10 1.90255e+10 1.8892e+10 1.8892e+10 1.87574e+10 1.87574e+10 1.86219e+10 1.86219e+10 1.84856e+10 1.84856e+10 1.83484e+10 1.83484e+10 1.82104e+10 1.82104e+10 1.80716e+10 1.80716e+10 1.79322e+10 1.79322e+10 1.7792e+10 1.7792e+10 1.76512e+10 1.76512e+10 1.75097e+10 1.75097e+10 1.73677e+10 1.73677e+10 1.72252e+10 1.72252e+10 1.70821e+10 1.70821e+10 1.69386e+10 1.69386e+10 1.67946e+10 1.67946e+10 1.66503e+10 1.66503e+10 1.65055e+10 1.65055e+10 1.63604e+10 1.63604e+10 1.62151e+10 1.62151e+10 1.60694e+10 1.60694e+10 1.59235e+10 1.59235e+10 1.57774e+10 1.57774e+10 1.56312e+10 1.56312e+10 1.54847e+10 1.54847e+10 1.53382e+10 1.53382e+10 1.51915e+10 1.51915e+10 1.50448e+10 1.50448e+10 1.4898e+10 1.4898e+10 1.47513e+10 1.47513e+10 1.46045e+10 1.46045e+10 1.44578e+10 1.44578e+10 1.43111e+10 1.43111e+10 1.41645e+10 1.41645e+10 1.40181e+10 1.40181e+10 1.38717e+10 1.38717e+10 1.37256e+10 1.37256e+10 1.35796e+10 1.35796e+10 1.34338e+10 1.34338e+10 1.32882e+10 1.32882e+10 1.31429e+10 1.31429e+10 1.29978e+10 1.29978e+10 1.2853e+10 1.2853e+10 1.27086e+10 1.27086e+10 1.25644e+10 1.25644e+10 1.24206e+10 1.24206e+10 1.22772e+10 1.22772e+10 1.21341e+10 1.21341e+10 1.19914e+10 1.19914e+10 1.18491e+10 1.18491e+10 1.17073e+10 1.17073e+10 1.15659e+10 1.15659e+10 1.14249e+10 1.14249e+10 1.12845e+10 1.12845e+10 1.11445e+10 1.11445e+10 1.1005e+10 1.1005e+10 1.08661e+10 1.08661e+10 1.07277e+10 1.07277e+10 1.05898e+10 1.05898e+10 1.04525e+10 1.04525e+10 1.03157e+10 1.03157e+10 1.01795e+10 1.01795e+10 1.0044e+10 1.0044e+10 9.909e+09 9.909e+09 9.77465e+09 9.77465e+09 9.64092e+09 9.64092e+09 9.50784e+09 9.50784e+09 9.3754e+09 9.3754e+09 9.24361e+09 9.24361e+09 9.1125e+09 9.1125e+09 8.98206e+09 8.98206e+09 8.8523e+09 8.8523e+09 8.72325e+09 8.72325e+09 8.59489e+09 8.59489e+09 8.46724e+09 8.46724e+09 8.34031e+09 8.34031e+09 8.2141e+09 8.2141e+09 8.08862e+09 8.08862e+09 7.96389e+09 7.96389e+09 7.8399e+09 7.8399e+09 7.71666e+09 7.71666e+09 7.59418e+09 7.59418e+09 7.47246e+09 7.47246e+09 7.35151e+09 7.35151e+09 7.23134e+09 7.23134e+09 7.11194e+09 7.11194e+09 6.99333e+09 6.99333e+09 6.87551e+09 6.87551e+09 6.75848e+09 6.75848e+09 6.64225e+09 6.64225e+09 6.52683e+09 6.52683e+09 6.4122e+09 6.4122e+09 6.29839e+09 6.29839e+09 6.18538e+09 6.18538e+09 6.07319e+09 6.07319e+09 5.96182e+09 5.96182e+09 5.85127e+09 5.85127e+09 5.74155e+09 5.74155e+09 5.63265e+09 5.63265e+09 5.52457e+09 5.52457e+09 5.41733e+09 5.41733e+09 5.31092e+09 5.31092e+09 5.20534e+09 5.20534e+09 5.10059e+09 5.10059e+09 4.99668e+09 4.99668e+09 4.89361e+09 4.89361e+09 4.79137e+09 4.79137e+09 4.68998e+09 4.68998e+09 4.58942e+09 4.58942e+09 4.4897e+09 4.4897e+09 4.39082e+09 4.39082e+09 4.29278e+09 4.29278e+09 4.19559e+09 4.19559e+09 4.09923e+09 4.09923e+09 4.00371e+09 4.00371e+09 3.90903e+09 3.90903e+09 3.81519e+09 3.81519e+09 3.72219e+09 3.72219e+09 3.63003e+09 3.63003e+09 3.5387e+09 3.5387e+09 3.44821e+09 3.44821e+09 3.35856e+09 3.35856e+09 3.26973e+09 3.26973e+09 3.18174e+09 3.18174e+09 3.09458e+09 3.09458e+09 3.00825e+09 3.00825e+09 2.92275e+09 2.92275e+09 2.83808e+09 2.83808e+09 2.75422e+09 2.75422e+09 2.67119e+09 2.67119e+09 2.58898e+09 2.58898e+09 2.50759e+09 2.50759e+09 2.42702e+09 2.42702e+09 2.34726e+09 2.34726e+09 2.2683e+09 2.2683e+09 2.19016e+09 2.19016e+09 2.11283e+09 2.11283e+09 2.03629e+09 2.03629e+09 1.96056e+09 1.96056e+09 1.88563e+09 1.88563e+09 1.81149e+09 1.81149e+09 1.73815e+09 1.73815e+09 1.66559e+09 1.66559e+09 1.59382e+09 1.59382e+09 1.52283e+09 1.52283e+09 1.45263e+09 1.45263e+09 1.3832e+09 1.3832e+09 1.31454e+09 1.31454e+09 1.24666e+09 1.24666e+09 1.17954e+09 1.17954e+09 1.11318e+09 1.11318e+09 1.04759e+09 1.04759e+09 9.82748e+08 9.82748e+08 9.18662e+08 9.18662e+08 8.55324e+08 8.55324e+08 7.92732e+08 7.92732e+08 7.30882e+08 7.30882e+08 6.69769e+08 6.69769e+08 6.09391e+08 6.09391e+08 5.49742e+08 5.49742e+08 4.9082e+08 4.9082e+08 4.3262e+08 4.3262e+08 3.75139e+08 3.75139e+08 3.18372e+08 3.18372e+08 2.62314e+08 2.62314e+08 2.06964e+08 2.06964e+08 1.52315e+08 1.52315e+08 9.83636e+07 9.83636e+07 4.51063e+07 4.51063e+07 -7.46147e+06 -7.46147e+06 -5.93439e+07 -5.93439e+07 -1.10545e+08 -1.10545e+08 -1.6107e+08 -1.6107e+08 -2.10922e+08 -2.10922e+08 -2.60106e+08 -2.60106e+08 -3.08626e+08 -3.08626e+08 -3.56486e+08 -3.56486e+08 -4.03692e+08 -4.03692e+08 -4.50247e+08 -4.50247e+08 -4.96155e+08 -4.96155e+08 -5.41421e+08 -5.41421e+08 -5.8605e+08 -5.8605e+08 -6.30046e+08 -6.30046e+08 -6.73413e+08 -6.73413e+08 -7.16156e+08 -7.16156e+08 -7.58279e+08 -7.58279e+08 -7.99787e+08 -7.99787e+08 -8.40685e+08 -8.40685e+08 -8.80976e+08 -8.80976e+08 -9.20665e+08 -9.20665e+08 -9.59758e+08 -9.59758e+08 -9.98257e+08 -9.98257e+08 -1.03617e+09 -1.03617e+09 -1.0735e+09 -1.0735e+09 -1.11025e+09 -1.11025e+09 -1.14642e+09 -1.14642e+09 -1.18202e+09 -1.18202e+09 -1.21706e+09 -1.21706e+09 -1.25154e+09 -1.25154e+09 -1.28546e+09 -1.28546e+09 -1.31883e+09 -1.31883e+09 -1.35165e+09 -1.35165e+09 -1.38393e+09 -1.38393e+09 -1.41567e+09 -1.41567e+09 -1.44688e+09 -1.44688e+09 -1.47755e+09 -1.47755e+09 -1.50771e+09 -1.50771e+09 -1.53734e+09 -1.53734e+09 -1.56646e+09 -1.56646e+09 -1.59506e+09 -1.59506e+09 -1.62316e+09 -1.62316e+09 -1.65075e+09 -1.65075e+09 -1.67785e+09 -1.67785e+09 -1.70445e+09 -1.70445e+09 -1.73057e+09 -1.73057e+09 -1.7562e+09 -1.7562e+09 -1.78135e+09 -1.78135e+09 -1.80602e+09 -1.80602e+09 -1.83022e+09 -1.83022e+09 -1.85396e+09 -1.85396e+09 -1.87723e+09 -1.87723e+09 -1.90004e+09 -1.90004e+09 -1.9224e+09 -1.9224e+09 -1.94431e+09 -1.94431e+09 -1.96578e+09 -1.96578e+09 -1.9868e+09 -1.9868e+09 -2.00739e+09 -2.00739e+09 -2.02754e+09 -2.02754e+09 -2.04727e+09 -2.04727e+09 -2.06657e+09 -2.06657e+09 -2.08545e+09 -2.08545e+09 -2.10392e+09 -2.10392e+09 -2.12197e+09 -2.12197e+09 -2.13962e+09 -2.13962e+09 -2.15687e+09 -2.15687e+09 -2.17371e+09 -2.17371e+09 -2.19016e+09 -2.19016e+09 -2.20622e+09 -2.20622e+09 -2.22189e+09 -2.22189e+09 -2.23719e+09 -2.23719e+09 -2.2521e+09 -2.2521e+09 -2.26663e+09 -2.26663e+09 -2.2808e+09 -2.2808e+09 -2.2946e+09 -2.2946e+09 -2.30804e+09 -2.30804e+09 -2.32112e+09 -2.32112e+09 -2.33384e+09 -2.33384e+09 -2.34622e+09 -2.34622e+09 -2.35824e+09 -2.35824e+09 -2.36993e+09 -2.36993e+09 -2.38127e+09 -2.38127e+09 -2.39228e+09 -2.39228e+09 -2.40296e+09 -2.40296e+09 -2.4133e+09 -2.4133e+09 -2.42333e+09 -2.42333e+09 -2.43303e+09 -2.43303e+09 -2.44242e+09 -2.44242e+09 -2.4515e+09 -2.4515e+09 -2.46026e+09 -2.46026e+09 -2.46872e+09 -2.46872e+09 -2.47688e+09 -2.47688e+09 -2.48474e+09 -2.48474e+09 -2.49231e+09 -2.49231e+09 -2.49958e+09 -2.49958e+09 -2.50657e+09 -2.50657e+09 -2.51327e+09 -2.51327e+09 -2.51969e+09 -2.51969e+09 -2.52583e+09 -2.52583e+09 -2.5317e+09 -2.5317e+09 -2.5373e+09 -2.5373e+09 -2.54263e+09 -2.54263e+09 -2.5477e+09 -2.5477e+09 -2.55251e+09 -2.55251e+09 -2.55706e+09 -2.55706e+09 -2.56136e+09 -2.56136e+09 -2.56541e+09 -2.56541e+09 -2.56921e+09 -2.56921e+09 -2.57276e+09 -2.57276e+09 -2.57608e+09 -2.57608e+09 -2.57916e+09 -2.57916e+09 -2.582e+09 -2.582e+09 -2.58461e+09 -2.58461e+09 -2.587e+09 -2.587e+09 -2.58916e+09 -2.58916e+09 -2.5911e+09 -2.5911e+09 -2.59281e+09 -2.59281e+09 -2.59432e+09 -2.59432e+09 -2.59561e+09 -2.59561e+09 -2.59669e+09 -2.59669e+09 -2.59756e+09 -2.59756e+09 -2.59823e+09 -2.59823e+09 -2.5987e+09 -2.5987e+09 -2.59896e+09 -2.59896e+09 -2.59904e+09 -2.59904e+09 -2.59892e+09 -2.59892e+09 -2.59861e+09 -2.59861e+09 -2.59812e+09 -2.59812e+09 -2.59744e+09 -2.59744e+09 -2.59658e+09 -2.59658e+09 -2.59554e+09 -2.59554e+09 -2.59432e+09 -2.59432e+09 -2.59293e+09 -2.59293e+09 -2.59137e+09 -2.59137e+09 -2.58964e+09 -2.58964e+09 -2.58775e+09 -2.58775e+09 -2.58569e+09 -2.58569e+09 -2.58348e+09 -2.58348e+09 -2.5811e+09 -2.5811e+09 -2.57857e+09 -2.57857e+09 -2.57589e+09 -2.57589e+09 -2.57305e+09 -2.57305e+09 -2.57007e+09 -2.57007e+09 -2.56695e+09 -2.56695e+09 -2.56368e+09 -2.56368e+09 -2.56026e+09 -2.56026e+09 -2.55672e+09 -2.55672e+09 -2.55303e+09 -2.55303e+09 -2.54921e+09 -2.54921e+09 -2.54526e+09 -2.54526e+09 -2.54118e+09 -2.54118e+09 -2.53698e+09 -2.53698e+09 -2.53264e+09 -2.53264e+09 -2.52819e+09 -2.52819e+09 -2.52362e+09 -2.52362e+09 -2.51892e+09 -2.51892e+09 -2.51412e+09 -2.51412e+09 -2.50919e+09 -2.50919e+09 -2.50416e+09 -2.50416e+09 -2.49902e+09 -2.49902e+09 -2.49376e+09 -2.49376e+09 -2.48841e+09 -2.48841e+09 -2.48295e+09 -2.48295e+09 -2.47738e+09 -2.47738e+09 -2.47172e+09 -2.47172e+09 -2.46596e+09 -2.46596e+09 -2.46011e+09 -2.46011e+09 -2.45416e+09 -2.45416e+09 -2.44812e+09 -2.44812e+09 -2.44198e+09 -2.44198e+09 -2.43576e+09 -2.43576e+09 -2.42946e+09 -2.42946e+09 -2.42307e+09 -2.42307e+09 -2.41659e+09 -2.41659e+09 -2.41004e+09 -2.41004e+09 -2.40341e+09 -2.40341e+09 -2.39669e+09 -2.39669e+09 -2.38991e+09 -2.38991e+09 -2.38305e+09 -2.38305e+09 -2.37611e+09 -2.37611e+09 -2.36911e+09 -2.36911e+09 -2.36203e+09 -2.36203e+09 -2.35489e+09 -2.35489e+09 -2.34768e+09 -2.34768e+09 -2.34041e+09 -2.34041e+09 -2.33308e+09 -2.33308e+09 -2.32568e+09 -2.32568e+09 -2.31823e+09 -2.31823e+09 -2.31071e+09 -2.31071e+09 -2.30314e+09 -2.30314e+09 -2.29552e+09 -2.29552e+09 -2.28784e+09 -2.28784e+09 -2.28011e+09 -2.28011e+09 -2.27233e+09 -2.27233e+09 -2.2645e+09 -2.2645e+09 -2.25662e+09 -2.25662e+09 -2.24869e+09 -2.24869e+09 -2.24072e+09 -2.24072e+09 -2.23271e+09 -2.23271e+09 -2.22465e+09 -2.22465e+09 -2.21655e+09 -2.21655e+09 -2.20841e+09 -2.20841e+09 -2.20023e+09 -2.20023e+09 -2.19202e+09 -2.19202e+09 -2.18377e+09 -2.18377e+09 -2.17548e+09 -2.17548e+09 -2.16716e+09 -2.16716e+09 -2.15881e+09 -2.15881e+09 -2.15042e+09 -2.15042e+09 -2.14201e+09 -2.14201e+09 -2.13357e+09 -2.13357e+09 -2.1251e+09 -2.1251e+09 -2.1166e+09 -2.1166e+09 -2.10808e+09 -2.10808e+09 -2.09953e+09 -2.09953e+09 -2.09096e+09 -2.09096e+09 -2.08237e+09 -2.08237e+09 -2.07375e+09 -2.07375e+09 -2.06512e+09 -2.06512e+09 -2.05646e+09 -2.05646e+09 -2.04779e+09 -2.04779e+09 -2.0391e+09 -2.0391e+09 -2.0304e+09 -2.0304e+09 -2.02168e+09 -2.02168e+09 -2.01294e+09 -2.01294e+09 -2.0042e+09 -2.0042e+09 -1.99544e+09 -1.99544e+09 -1.98666e+09 -1.98666e+09 -1.97788e+09 -1.97788e+09 -1.96909e+09 -1.96909e+09 -1.96029e+09 -1.96029e+09 -1.95148e+09 -1.95148e+09 -1.94267e+09 -1.94267e+09 -1.93385e+09 -1.93385e+09 -1.92502e+09 -1.92502e+09 -1.91619e+09 -1.91619e+09 -1.90735e+09 -1.90735e+09 -1.89852e+09 -1.89852e+09 -1.88968e+09 -1.88968e+09 -1.88084e+09 -1.88084e+09 -1.87199e+09 -1.87199e+09 -1.86315e+09 -1.86315e+09 -1.85431e+09 -1.85431e+09 -1.84547e+09 -1.84547e+09 -1.83664e+09 -1.83664e+09 -1.82781e+09 -1.82781e+09 -1.81898e+09 -1.81898e+09 -1.81015e+09 -1.81015e+09 -1.80133e+09 -1.80133e+09 -1.79252e+09 -1.79252e+09 -1.78371e+09 -1.78371e+09 -1.77491e+09 -1.77491e+09 -1.76612e+09 -1.76612e+09 -1.75734e+09 -1.75734e+09 -1.74857e+09 -1.74857e+09 -1.7398e+09 -1.7398e+09 -1.73105e+09 -1.73105e+09 -1.7223e+09 -1.7223e+09 -1.71357e+09 -1.71357e+09 -1.70485e+09 -1.70485e+09 -1.69615e+09 -1.69615e+09 -1.68745e+09 -1.68745e+09 -1.67877e+09 -1.67877e+09 -1.67011e+09 -1.67011e+09 -1.66146e+09 -1.66146e+09 -1.65282e+09 -1.65282e+09 -1.6442e+09 -1.6442e+09 -1.6356e+09 -1.6356e+09 -1.62701e+09 -1.62701e+09 -1.61844e+09 -1.61844e+09 -1.60989e+09 -1.60989e+09 -1.60136e+09 -1.60136e+09 -1.59284e+09 -1.59284e+09 -1.58435e+09 -1.58435e+09 -1.57587e+09 -1.57587e+09 -1.56742e+09 -1.56742e+09 -1.55898e+09 -1.55898e+09 -1.55057e+09 -1.55057e+09 -1.54218e+09 -1.54218e+09 -1.5338e+09 -1.5338e+09 -1.52545e+09 -1.52545e+09 -1.51713e+09 -1.51713e+09 -1.50882e+09 -1.50882e+09 -1.50054e+09 -1.50054e+09 -1.49229e+09 -1.49229e+09 -1.48405e+09 -1.48405e+09 -1.47585e+09 -1.47585e+09 -1.46766e+09 -1.46766e+09 -1.4595e+09 -1.4595e+09 -1.45137e+09 -1.45137e+09 -1.44326e+09 -1.44326e+09 -1.43518e+09 -1.43518e+09 -1.42712e+09 -1.42712e+09 -1.4191e+09 -1.4191e+09 -1.41109e+09 -1.41109e+09 -1.40312e+09 -1.40312e+09 -1.39517e+09 -1.39517e+09 -1.38725e+09 -1.38725e+09 -1.37936e+09 -1.37936e+09 -1.3715e+09 -1.3715e+09 -1.36367e+09 -1.36367e+09 -1.35586e+09 -1.35586e+09 -1.34808e+09 -1.34808e+09 -1.34034e+09 -1.34034e+09 -1.33262e+09 -1.33262e+09 -1.32494e+09 -1.32494e+09 -1.31728e+09 -1.31728e+09 -1.30965e+09 -1.30965e+09 -1.30206e+09 -1.30206e+09 -1.29449e+09 -1.29449e+09 -1.28696e+09 -1.28696e+09 -1.27946e+09 -1.27946e+09 -1.27199e+09 -1.27199e+09 -1.26455e+09 -1.26455e+09 -1.25714e+09 -1.25714e+09 -1.24977e+09 -1.24977e+09 -1.24242e+09 -1.24242e+09 -1.23511e+09 -1.23511e+09 -1.22784e+09 -1.22784e+09 -1.22059e+09 -1.22059e+09 -1.21338e+09 -1.21338e+09 -1.2062e+09 -1.2062e+09 -1.19906e+09 -1.19906e+09 -1.19194e+09 -1.19194e+09 -1.18487e+09 -1.18487e+09 -1.17782e+09 -1.17782e+09 -1.17081e+09 -1.17081e+09 -1.16384e+09 -1.16384e+09 -1.15689e+09 -1.15689e+09 -1.14999e+09 -1.14999e+09 -1.14311e+09 -1.14311e+09 -1.13627e+09 -1.13627e+09 -1.12947e+09 -1.12947e+09 -1.1227e+09 -1.1227e+09 -1.11597e+09 -1.11597e+09 -1.10927e+09 -1.10927e+09 -1.10261e+09 -1.10261e+09 -1.09598e+09 -1.09598e+09 -1.08939e+09 -1.08939e+09 -1.08283e+09 -1.08283e+09 -1.07631e+09 -1.07631e+09 -1.06982e+09 -1.06982e+09 -1.06337e+09 -1.06337e+09 -1.05696e+09 -1.05696e+09 -1.05058e+09 -1.05058e+09 -1.04424e+09 -1.04424e+09 -1.03793e+09 -1.03793e+09 -1.03167e+09 -1.03167e+09 -1.02543e+09 -1.02543e+09 -1.01924e+09 -1.01924e+09 -1.01308e+09 -1.01308e+09 -1.00695e+09 -1.00695e+09 -1.00087e+09 -1.00087e+09 -9.94817e+08 -9.94817e+08 -9.88804e+08 -9.88804e+08 -9.82827e+08 -9.82827e+08 -9.76888e+08 -9.76888e+08 -9.70985e+08 -9.70985e+08 -9.6512e+08 -9.6512e+08 -9.59291e+08 -9.59291e+08 -9.535e+08 -9.535e+08 -9.47746e+08 -9.47746e+08 -9.42028e+08 -9.42028e+08 -9.36349e+08 -9.36349e+08 -9.30706e+08 -9.30706e+08 -9.25101e+08 -9.25101e+08 -9.19532e+08 -9.19532e+08 -9.14002e+08 -9.14002e+08 -9.08508e+08 -9.08508e+08 -9.03053e+08 -9.03053e+08 -8.97634e+08 -8.97634e+08 -8.92253e+08 -8.92253e+08 -8.8691e+08 -8.8691e+08 -8.81604e+08 -8.81604e+08 -8.76336e+08 -8.76336e+08 -8.71105e+08 -8.71105e+08 -8.65911e+08 -8.65911e+08 -8.60756e+08 -8.60756e+08 -8.55638e+08 -8.55638e+08 -8.50557e+08 -8.50557e+08 -8.45515e+08 -8.45515e+08 -8.4051e+08 -8.4051e+08 -8.35542e+08 -8.35542e+08 -8.30612e+08 -8.30612e+08 -8.2572e+08 -8.2572e+08 -8.20866e+08 -8.20866e+08 -8.16049e+08 -8.16049e+08 -8.1127e+08 -8.1127e+08 -8.06528e+08 -8.06528e+08 -8.01825e+08 -8.01825e+08 -7.97159e+08 -7.97159e+08 -7.9253e+08 -7.9253e+08 -7.87939e+08 -7.87939e+08 -7.83386e+08 -7.83386e+08 -7.78871e+08 -7.78871e+08 -7.74393e+08 -7.74393e+08 -7.69953e+08 -7.69953e+08 -7.6555e+08 -7.6555e+08 -7.61185e+08 -7.61185e+08 -7.56858e+08 -7.56858e+08 -7.52568e+08 -7.52568e+08 -7.48316e+08 -7.48316e+08 -7.44102e+08 -7.44102e+08 -7.39924e+08 -7.39924e+08 -7.35785e+08 -7.35785e+08 -7.31683e+08 -7.31683e+08 -7.27618e+08 -7.27618e+08 -7.23591e+08 -7.23591e+08 -7.19601e+08 -7.19601e+08 -7.15649e+08 -7.15649e+08 -7.11734e+08 -7.11734e+08 -7.07857e+08 -7.07857e+08 -7.04017e+08 -7.04017e+08 -7.00214e+08 -7.00214e+08 -6.96448e+08 -6.96448e+08 -6.9272e+08 -6.9272e+08 -6.89029e+08 -6.89029e+08 -6.85375e+08 -6.85375e+08 -6.81758e+08 -6.81758e+08 -6.78178e+08 -6.78178e+08 -6.74636e+08 -6.74636e+08 -6.7113e+08 -6.7113e+08 -6.67662e+08 -6.67662e+08 -6.64231e+08 -6.64231e+08 -6.60836e+08 -6.60836e+08 -6.57479e+08 -6.57479e+08 -6.54158e+08 -6.54158e+08 -6.50874e+08 -6.50874e+08 -6.47628e+08 -6.47628e+08 -6.44417e+08 -6.44417e+08 -6.41244e+08 -6.41244e+08 -6.38107e+08 -6.38107e+08 -6.35007e+08 -6.35007e+08 -6.31944e+08 -6.31944e+08 -6.28917e+08 -6.28917e+08 -6.25927e+08 -6.25927e+08 -6.22973e+08 -6.22973e+08 -6.20055e+08 -6.20055e+08 -6.17174e+08 -6.17174e+08 -6.1433e+08 -6.1433e+08 -6.11521e+08 -6.11521e+08 -6.08749e+08 -6.08749e+08 -6.06013e+08 -6.06013e+08 -6.03313e+08 -6.03313e+08 -6.00649e+08 -6.00649e+08 -5.98022e+08 -5.98022e+08 -5.9543e+08 -5.9543e+08 -5.92874e+08 -5.92874e+08 -5.90354e+08 -5.90354e+08 -5.8787e+08 -5.8787e+08 -5.85422e+08 -5.85422e+08 -5.83009e+08 -5.83009e+08 -5.80632e+08 -5.80632e+08 -5.78291e+08 -5.78291e+08 -5.75985e+08 -5.75985e+08 -5.73715e+08 -5.73715e+08 -5.7148e+08 -5.7148e+08 -5.69281e+08 -5.69281e+08 -5.67116e+08 -5.67116e+08 -5.64987e+08 -5.64987e+08 -5.62894e+08 -5.62894e+08 -5.60835e+08 -5.60835e+08 -5.58811e+08 -5.58811e+08 -5.56822e+08 -5.56822e+08 -5.54869e+08 -5.54869e+08 -5.5295e+08 -5.5295e+08 -5.51066e+08 -5.51066e+08 -5.49216e+08 -5.49216e+08 -5.47401e+08 -5.47401e+08 -5.45621e+08 -5.45621e+08 -5.43875e+08 -5.43875e+08 -5.42164e+08 -5.42164e+08 -5.40486e+08 -5.40486e+08 -5.38844e+08 -5.38844e+08 -5.37235e+08 -5.37235e+08 -5.3566e+08 -5.3566e+08 -5.3412e+08 -5.3412e+08 -5.32613e+08 -5.32613e+08 -5.3114e+08 -5.3114e+08 -5.29701e+08 -5.29701e+08 -5.28296e+08 -5.28296e+08 -5.26924e+08 -5.26924e+08 -5.25586e+08 -5.25586e+08 -5.24281e+08 -5.24281e+08 -5.2301e+08 -5.2301e+08 -5.21772e+08 -5.21772e+08 -5.20567e+08 -5.20567e+08 -5.19395e+08 -5.19395e+08 -5.18256e+08 -5.18256e+08 -5.1715e+08 -5.1715e+08 -5.16076e+08 -5.16076e+08 -5.15035e+08 -5.15035e+08 -5.14027e+08 -5.14027e+08 -5.13052e+08 -5.13052e+08 -5.12108e+08 -5.12108e+08 -5.11197e+08 -5.11197e+08 -5.10319e+08 -5.10319e+08 -5.09472e+08 -5.09472e+08 -5.08657e+08 -5.08657e+08 -5.07874e+08 -5.07874e+08 -5.07123e+08 -5.07123e+08 -5.06403e+08 -5.06403e+08 -5.05715e+08 -5.05715e+08 -5.05058e+08 -5.05058e+08 -5.04432e+08 -5.04432e+08 -5.03838e+08 -5.03838e+08 -5.03274e+08 -5.03274e+08 -5.02742e+08 -5.02742e+08 -5.0224e+08 -5.0224e+08 -5.01769e+08 -5.01769e+08 -5.01328e+08 -5.01328e+08 -5.00918e+08 -5.00918e+08 -5.00538e+08 -5.00538e+08 -5.00188e+08 -5.00188e+08 -4.99868e+08 -4.99868e+08 -4.99578e+08 -4.99578e+08 -4.99318e+08 -4.99318e+08 -4.99087e+08 -4.99087e+08 -4.98885e+08 -4.98885e+08 -4.98713e+08 -4.98713e+08 -4.9857e+08 -4.9857e+08 -4.98455e+08 -4.98455e+08 -4.9837e+08 -4.9837e+08 -4.98313e+08 -4.98313e+08 -4.98285e+08 -4.98285e+08 -4.98285e+08 -4.98285e+08 -4.98313e+08 -4.98313e+08 -4.98369e+08 -4.98369e+08 -4.98452e+08 -4.98452e+08 -4.98564e+08 -4.98564e+08 -4.98703e+08 -4.98703e+08 -4.98869e+08 -4.98869e+08 -4.99062e+08 -4.99062e+08 -4.99282e+08 -4.99282e+08 -4.99529e+08 -4.99529e+08 -4.99803e+08 -4.99803e+08 -5.00103e+08 -5.00103e+08 -5.00428e+08 -5.00428e+08 -5.0078e+08 -5.0078e+08 -5.01158e+08 -5.01158e+08 -5.01561e+08 -5.01561e+08 -5.0199e+08 -5.0199e+08 -5.02443e+08 -5.02443e+08 -5.02922e+08 -5.02922e+08 -5.03425e+08 -5.03425e+08 -5.03953e+08 -5.03953e+08 -5.04505e+08 -5.04505e+08 -5.05081e+08 -5.05081e+08 -5.05681e+08 -5.05681e+08 -5.06304e+08 -5.06304e+08 -