# vtk DataFile Version 3.0
#This file was generated by the deal.II library on 2020/9/1 at 15:06:47
ASCII
DATASET UNSTRUCTURED_GRID

POINTS 2048 double
1.5 0 0
1.59619 0 0
1.59619 0 0
1.69238 0 0
1.69238 0 0
1.78857 0 0
1.78857 0 0
1.88477 0 0
1.88477 0 0
1.98096 0 0
1.98096 0 0
2.07715 0 0
2.07715 0 0
2.17334 0 0
2.17334 0 0
2.26953 0 0
2.26953 0 0
2.36572 0 0
2.36572 0 0
2.46191 0 0
2.46191 0 0
2.55811 0 0
2.55811 0 0
2.6543 0 0
2.6543 0 0
2.75049 0 0
2.75049 0 0
2.84668 0 0
2.84668 0 0
2.94287 0 0
2.94287 0 0
3.03906 0 0
3.03906 0 0
3.13525 0 0
3.13525 0 0
3.23145 0 0
3.23145 0 0
3.32764 0 0
3.32764 0 0
3.42383 0 0
3.42383 0 0
3.52002 0 0
3.52002 0 0
3.61621 0 0
3.61621 0 0
3.7124 0 0
3.7124 0 0
3.80859 0 0
3.80859 0 0
3.90479 0 0
3.90479 0 0
4.00098 0 0
4.00098 0 0
4.09717 0 0
4.09717 0 0
4.19336 0 0
4.19336 0 0
4.28955 0 0
4.28955 0 0
4.38574 0 0
4.38574 0 0
4.48193 0 0
4.48193 0 0
4.57812 0 0
4.57812 0 0
4.67432 0 0
4.67432 0 0
4.77051 0 0
4.77051 0 0
4.8667 0 0
4.8667 0 0
4.96289 0 0
4.96289 0 0
5.05908 0 0
5.05908 0 0
5.15527 0 0
5.15527 0 0
5.25146 0 0
5.25146 0 0
5.34766 0 0
5.34766 0 0
5.44385 0 0
5.44385 0 0
5.54004 0 0
5.54004 0 0
5.63623 0 0
5.63623 0 0
5.73242 0 0
5.73242 0 0
5.82861 0 0
5.82861 0 0
5.9248 0 0
5.9248 0 0
6.021 0 0
6.021 0 0
6.11719 0 0
6.11719 0 0
6.21338 0 0
6.21338 0 0
6.30957 0 0
6.30957 0 0
6.40576 0 0
6.40576 0 0
6.50195 0 0
6.50195 0 0
6.59814 0 0
6.59814 0 0
6.69434 0 0
6.69434 0 0
6.79053 0 0
6.79053 0 0
6.88672 0 0
6.88672 0 0
6.98291 0 0
6.98291 0 0
7.0791 0 0
7.0791 0 0
7.17529 0 0
7.17529 0 0
7.27148 0 0
7.27148 0 0
7.36768 0 0
7.36768 0 0
7.46387 0 0
7.46387 0 0
7.56006 0 0
7.56006 0 0
7.65625 0 0
7.65625 0 0
7.75244 0 0
7.75244 0 0
7.84863 0 0
7.84863 0 0
7.94482 0 0
7.94482 0 0
8.04102 0 0
8.04102 0 0
8.13721 0 0
8.13721 0 0
8.2334 0 0
8.2334 0 0
8.32959 0 0
8.32959 0 0
8.42578 0 0
8.42578 0 0
8.52197 0 0
8.52197 0 0
8.61816 0 0
8.61816 0 0
8.71436 0 0
8.71436 0 0
8.81055 0 0
8.81055 0 0
8.90674 0 0
8.90674 0 0
9.00293 0 0
9.00293 0 0
9.09912 0 0
9.09912 0 0
9.19531 0 0
9.19531 0 0
9.2915 0 0
9.2915 0 0
9.3877 0 0
9.3877 0 0
9.48389 0 0
9.48389 0 0
9.58008 0 0
9.58008 0 0
9.67627 0 0
9.67627 0 0
9.77246 0 0
9.77246 0 0
9.86865 0 0
9.86865 0 0
9.96484 0 0
9.96484 0 0
10.061 0 0
10.061 0 0
10.1572 0 0
10.1572 0 0
10.2534 0 0
10.2534 0 0
10.3496 0 0
10.3496 0 0
10.4458 0 0
10.4458 0 0
10.542 0 0
10.542 0 0
10.6382 0 0
10.6382 0 0
10.7344 0 0
10.7344 0 0
10.8306 0 0
10.8306 0 0
10.9268 0 0
10.9268 0 0
11.0229 0 0
11.0229 0 0
11.1191 0 0
11.1191 0 0
11.2153 0 0
11.2153 0 0
11.3115 0 0
11.3115 0 0
11.4077 0 0
11.4077 0 0
11.5039 0 0
11.5039 0 0
11.6001 0 0
11.6001 0 0
11.6963 0 0
11.6963 0 0
11.7925 0 0
11.7925 0 0
11.8887 0 0
11.8887 0 0
11.9849 0 0
11.9849 0 0
12.0811 0 0
12.0811 0 0
12.1772 0 0
12.1772 0 0
12.2734 0 0
12.2734 0 0
12.3696 0 0
12.3696 0 0
12.4658 0 0
12.4658 0 0
12.562 0 0
12.562 0 0
12.6582 0 0
12.6582 0 0
12.7544 0 0
12.7544 0 0
12.8506 0 0
12.8506 0 0
12.9468 0 0
12.9468 0 0
13.043 0 0
13.043 0 0
13.1392 0 0
13.1392 0 0
13.2354 0 0
13.2354 0 0
13.3315 0 0
13.3315 0 0
13.4277 0 0
13.4277 0 0
13.5239 0 0
13.5239 0 0
13.6201 0 0
13.6201 0 0
13.7163 0 0
13.7163 0 0
13.8125 0 0
13.8125 0 0
13.9087 0 0
13.9087 0 0
14.0049 0 0
14.0049 0 0
14.1011 0 0
14.1011 0 0
14.1973 0 0
14.1973 0 0
14.2935 0 0
14.2935 0 0
14.3896 0 0
14.3896 0 0
14.4858 0 0
14.4858 0 0
14.582 0 0
14.582 0 0
14.6782 0 0
14.6782 0 0
14.7744 0 0
14.7744 0 0
14.8706 0 0
14.8706 0 0
14.9668 0 0
14.9668 0 0
15.063 0 0
15.063 0 0
15.1592 0 0
15.1592 0 0
15.2554 0 0
15.2554 0 0
15.3516 0 0
15.3516 0 0
15.4478 0 0
15.4478 0 0
15.5439 0 0
15.5439 0 0
15.6401 0 0
15.6401 0 0
15.7363 0 0
15.7363 0 0
15.8325 0 0
15.8325 0 0
15.9287 0 0
15.9287 0 0
16.0249 0 0
16.0249 0 0
16.1211 0 0
16.1211 0 0
16.2173 0 0
16.2173 0 0
16.3135 0 0
16.3135 0 0
16.4097 0 0
16.4097 0 0
16.5059 0 0
16.5059 0 0
16.6021 0 0
16.6021 0 0
16.6982 0 0
16.6982 0 0
16.7944 0 0
16.7944 0 0
16.8906 0 0
16.8906 0 0
16.9868 0 0
16.9868 0 0
17.083 0 0
17.083 0 0
17.1792 0 0
17.1792 0 0
17.2754 0 0
17.2754 0 0
17.3716 0 0
17.3716 0 0
17.4678 0 0
17.4678 0 0
17.564 0 0
17.564 0 0
17.6602 0 0
17.6602 0 0
17.7563 0 0
17.7563 0 0
17.8525 0 0
17.8525 0 0
17.9487 0 0
17.9487 0 0
18.0449 0 0
18.0449 0 0
18.1411 0 0
18.1411 0 0
18.2373 0 0
18.2373 0 0
18.3335 0 0
18.3335 0 0
18.4297 0 0
18.4297 0 0
18.5259 0 0
18.5259 0 0
18.6221 0 0
18.6221 0 0
18.7183 0 0
18.7183 0 0
18.8145 0 0
18.8145 0 0
18.9106 0 0
18.9106 0 0
19.0068 0 0
19.0068 0 0
19.103 0 0
19.103 0 0
19.1992 0 0
19.1992 0 0
19.2954 0 0
19.2954 0 0
19.3916 0 0
19.3916 0 0
19.4878 0 0
19.4878 0 0
19.584 0 0
19.584 0 0
19.6802 0 0
19.6802 0 0
19.7764 0 0
19.7764 0 0
19.8726 0 0
19.8726 0 0
19.9688 0 0
19.9688 0 0
20.0649 0 0
20.0649 0 0
20.1611 0 0
20.1611 0 0
20.2573 0 0
20.2573 0 0
20.3535 0 0
20.3535 0 0
20.4497 0 0
20.4497 0 0
20.5459 0 0
20.5459 0 0
20.6421 0 0
20.6421 0 0
20.7383 0 0
20.7383 0 0
20.8345 0 0
20.8345 0 0
20.9307 0 0
20.9307 0 0
21.0269 0 0
21.0269 0 0
21.123 0 0
21.123 0 0
21.2192 0 0
21.2192 0 0
21.3154 0 0
21.3154 0 0
21.4116 0 0
21.4116 0 0
21.5078 0 0
21.5078 0 0
21.604 0 0
21.604 0 0
21.7002 0 0
21.7002 0 0
21.7964 0 0
21.7964 0 0
21.8926 0 0
21.8926 0 0
21.9888 0 0
21.9888 0 0
22.085 0 0
22.085 0 0
22.1812 0 0
22.1812 0 0
22.2773 0 0
22.2773 0 0
22.3735 0 0
22.3735 0 0
22.4697 0 0
22.4697 0 0
22.5659 0 0
22.5659 0 0
22.6621 0 0
22.6621 0 0
22.7583 0 0
22.7583 0 0
22.8545 0 0
22.8545 0 0
22.9507 0 0
22.9507 0 0
23.0469 0 0
23.0469 0 0
23.1431 0 0
23.1431 0 0
23.2393 0 0
23.2393 0 0
23.3354 0 0
23.3354 0 0
23.4316 0 0
23.4316 0 0
23.5278 0 0
23.5278 0 0
23.624 0 0
23.624 0 0
23.7202 0 0
23.7202 0 0
23.8164 0 0
23.8164 0 0
23.9126 0 0
23.9126 0 0
24.0088 0 0
24.0088 0 0
24.105 0 0
24.105 0 0
24.2012 0 0
24.2012 0 0
24.2974 0 0
24.2974 0 0
24.3936 0 0
24.3936 0 0
24.4897 0 0
24.4897 0 0
24.5859 0 0
24.5859 0 0
24.6821 0 0
24.6821 0 0
24.7783 0 0
24.7783 0 0
24.8745 0 0
24.8745 0 0
24.9707 0 0
24.9707 0 0
25.0669 0 0
25.0669 0 0
25.1631 0 0
25.1631 0 0
25.2593 0 0
25.2593 0 0
25.3555 0 0
25.3555 0 0
25.4517 0 0
25.4517 0 0
25.5479 0 0
25.5479 0 0
25.644 0 0
25.644 0 0
25.7402 0 0
25.7402 0 0
25.8364 0 0
25.8364 0 0
25.9326 0 0
25.9326 0 0
26.0288 0 0
26.0288 0 0
26.125 0 0
26.125 0 0
26.2212 0 0
26.2212 0 0
26.3174 0 0
26.3174 0 0
26.4136 0 0
26.4136 0 0
26.5098 0 0
26.5098 0 0
26.606 0 0
26.606 0 0
26.7021 0 0
26.7021 0 0
26.7983 0 0
26.7983 0 0
26.8945 0 0
26.8945 0 0
26.9907 0 0
26.9907 0 0
27.0869 0 0
27.0869 0 0
27.1831 0 0
27.1831 0 0
27.2793 0 0
27.2793 0 0
27.3755 0 0
27.3755 0 0
27.4717 0 0
27.4717 0 0
27.5679 0 0
27.5679 0 0
27.6641 0 0
27.6641 0 0
27.7603 0 0
27.7603 0 0
27.8564 0 0
27.8564 0 0
27.9526 0 0
27.9526 0 0
28.0488 0 0
28.0488 0 0
28.145 0 0
28.145 0 0
28.2412 0 0
28.2412 0 0
28.3374 0 0
28.3374 0 0
28.4336 0 0
28.4336 0 0
28.5298 0 0
28.5298 0 0
28.626 0 0
28.626 0 0
28.7222 0 0
28.7222 0 0
28.8184 0 0
28.8184 0 0
28.9146 0 0
28.9146 0 0
29.0107 0 0
29.0107 0 0
29.1069 0 0
29.1069 0 0
29.2031 0 0
29.2031 0 0
29.2993 0 0
29.2993 0 0
29.3955 0 0
29.3955 0 0
29.4917 0 0
29.4917 0 0
29.5879 0 0
29.5879 0 0
29.6841 0 0
29.6841 0 0
29.7803 0 0
29.7803 0 0
29.8765 0 0
29.8765 0 0
29.9727 0 0
29.9727 0 0
30.0688 0 0
30.0688 0 0
30.165 0 0
30.165 0 0
30.2612 0 0
30.2612 0 0
30.3574 0 0
30.3574 0 0
30.4536 0 0
30.4536 0 0
30.5498 0 0
30.5498 0 0
30.646 0 0
30.646 0 0
30.7422 0 0
30.7422 0 0
30.8384 0 0
30.8384 0 0
30.9346 0 0
30.9346 0 0
31.0308 0 0
31.0308 0 0
31.127 0 0
31.127 0 0
31.2231 0 0
31.2231 0 0
31.3193 0 0
31.3193 0 0
31.4155 0 0
31.4155 0 0
31.5117 0 0
31.5117 0 0
31.6079 0 0
31.6079 0 0
31.7041 0 0
31.7041 0 0
31.8003 0 0
31.8003 0 0
31.8965 0 0
31.8965 0 0
31.9927 0 0
31.9927 0 0
32.0889 0 0
32.0889 0 0
32.1851 0 0
32.1851 0 0
32.2812 0 0
32.2812 0 0
32.3774 0 0
32.3774 0 0
32.4736 0 0
32.4736 0 0
32.5698 0 0
32.5698 0 0
32.666 0 0
32.666 0 0
32.7622 0 0
32.7622 0 0
32.8584 0 0
32.8584 0 0
32.9546 0 0
32.9546 0 0
33.0508 0 0
33.0508 0 0
33.147 0 0
33.147 0 0
33.2432 0 0
33.2432 0 0
33.3394 0 0
33.3394 0 0
33.4355 0 0
33.4355 0 0
33.5317 0 0
33.5317 0 0
33.6279 0 0
33.6279 0 0
33.7241 0 0
33.7241 0 0
33.8203 0 0
33.8203 0 0
33.9165 0 0
33.9165 0 0
34.0127 0 0
34.0127 0 0
34.1089 0 0
34.1089 0 0
34.2051 0 0
34.2051 0 0
34.3013 0 0
34.3013 0 0
34.3975 0 0
34.3975 0 0
34.4937 0 0
34.4937 0 0
34.5898 0 0
34.5898 0 0
34.686 0 0
34.686 0 0
34.7822 0 0
34.7822 0 0
34.8784 0 0
34.8784 0 0
34.9746 0 0
34.9746 0 0
35.0708 0 0
35.0708 0 0
35.167 0 0
35.167 0 0
35.2632 0 0
35.2632 0 0
35.3594 0 0
35.3594 0 0
35.4556 0 0
35.4556 0 0
35.5518 0 0
35.5518 0 0
35.6479 0 0
35.6479 0 0
35.7441 0 0
35.7441 0 0
35.8403 0 0
35.8403 0 0
35.9365 0 0
35.9365 0 0
36.0327 0 0
36.0327 0 0
36.1289 0 0
36.1289 0 0
36.2251 0 0
36.2251 0 0
36.3213 0 0
36.3213 0 0
36.4175 0 0
36.4175 0 0
36.5137 0 0
36.5137 0 0
36.6099 0 0
36.6099 0 0
36.7061 0 0
36.7061 0 0
36.8022 0 0
36.8022 0 0
36.8984 0 0
36.8984 0 0
36.9946 0 0
36.9946 0 0
37.0908 0 0
37.0908 0 0
37.187 0 0
37.187 0 0
37.2832 0 0
37.2832 0 0
37.3794 0 0
37.3794 0 0
37.4756 0 0
37.4756 0 0
37.5718 0 0
37.5718 0 0
37.668 0 0
37.668 0 0
37.7642 0 0
37.7642 0 0
37.8604 0 0
37.8604 0 0
37.9565 0 0
37.9565 0 0
38.0527 0 0
38.0527 0 0
38.1489 0 0
38.1489 0 0
38.2451 0 0
38.2451 0 0
38.3413 0 0
38.3413 0 0
38.4375 0 0
38.4375 0 0
38.5337 0 0
38.5337 0 0
38.6299 0 0
38.6299 0 0
38.7261 0 0
38.7261 0 0
38.8223 0 0
38.8223 0 0
38.9185 0 0
38.9185 0 0
39.0146 0 0
39.0146 0 0
39.1108 0 0
39.1108 0 0
39.207 0 0
39.207 0 0
39.3032 0 0
39.3032 0 0
39.3994 0 0
39.3994 0 0
39.4956 0 0
39.4956 0 0
39.5918 0 0
39.5918 0 0
39.688 0 0
39.688 0 0
39.7842 0 0
39.7842 0 0
39.8804 0 0
39.8804 0 0
39.9766 0 0
39.9766 0 0
40.0728 0 0
40.0728 0 0
40.1689 0 0
40.1689 0 0
40.2651 0 0
40.2651 0 0
40.3613 0 0
40.3613 0 0
40.4575 0 0
40.4575 0 0
40.5537 0 0
40.5537 0 0
40.6499 0 0
40.6499 0 0
40.7461 0 0
40.7461 0 0
40.8423 0 0
40.8423 0 0
40.9385 0 0
40.9385 0 0
41.0347 0 0
41.0347 0 0
41.1309 0 0
41.1309 0 0
41.2271 0 0
41.2271 0 0
[...]
POINT_DATA 2048
SCALARS solution_0 double 1
LOOKUP_TABLE default
31.4952 9.30354 9.30354 -13.5214 -13.5214 -36.5761 -36.5761 -59.5853 -59.5853 -82.3631 -82.3631 -104.786 -104.786 -126.776 -126.776 -148.283 -148.283 -169.281 -169.281 -189.757 -189.757 -209.711 -209.711 -229.149 -229.149 -248.08 -248.08 -266.519 -266.519 -284.482 -284.482 -301.985 -301.985 -319.045 -319.045 -335.681 -335.681 -351.91 -351.91 -367.747 -367.747 -383.21 -383.21 -398.314 -398.314 -413.073 -413.073 -427.501 -427.501 -441.612 -441.612 -455.419 -455.419 -468.933 -468.933 -482.165 -482.165 -495.125 -495.125 -507.824 -507.824 -520.271 -520.271 -532.474 -532.474 -544.441 -544.441 -556.181 -556.181 -567.7 -567.7 -579.005 -579.005 -590.102 -590.102 -600.998 -600.998 -611.698 -611.698 -622.206 -622.206 -632.529 -632.529 -642.671 -642.671 -652.635 -652.635 -662.426 -662.426 -672.049 -672.049 -681.506 -681.506 -690.802 -690.802 -699.938 -699.938 -708.919 -708.919 -717.748 -717.748 -726.426 -726.426 -734.957 -734.957 -743.344 -743.344 -751.587 -751.587 -759.691 -759.691 -767.656 -767.656 -775.485 -775.485 -783.18 -783.18 -790.743 -790.743 -798.175 -798.175 -805.478 -805.478 -812.653 -812.653 -819.703 -819.703 -826.628 -826.628 -833.43 -833.43 -840.11 -840.11 -846.67 -846.67 -853.111 -853.111 -859.434 -859.434 -865.641 -865.641 -871.731 -871.731 -877.708 -877.708 -883.57 -883.57 -889.321 -889.321 -894.96 -894.96 -900.488 -900.488 -905.907 -905.907 -911.217 -911.217 -916.42 -916.42 -921.516 -921.516 -926.506 -926.506 -931.391 -931.391 -936.171 -936.171 -940.848 -940.848 -945.423 -945.423 -949.896 -949.896 -954.267 -954.267 -958.539 -958.539 -962.711 -962.711 -966.784 -966.784 -970.759 -970.759 -974.637 -974.637 -978.418 -978.418 -982.104 -982.104 -985.694 -985.694 -989.19 -989.19 -992.592 -992.592 -995.901 -995.901 -999.118 -999.118 -1002.24 -1002.24 -1005.28 -1005.28 -1008.22 -1008.22 -1011.08 -1011.08 -1013.84 -1013.84 -1016.52 -1016.52 -1019.11 -1019.11 -1021.61 -1021.61 -1024.03 -1024.03 -1026.36 -1026.36 -1028.61 -1028.61 -1030.77 -1030.77 -1032.85 -1032.85 -1034.84 -1034.84 -1036.76 -1036.76 -1038.59 -1038.59 -1040.34 -1040.34 -1042.01 -1042.01 -1043.61 -1043.61 -1045.12 -1045.12 -1046.55 -1046.55 -1047.91 -1047.91 -1049.19 -1049.19 -1050.4 -1050.4 -1051.52 -1051.52 -1052.58 -1052.58 -1053.56 -1053.56 -1054.46 -1054.46 -1055.3 -1055.3 -1056.06 -1056.06 -1056.74 -1056.74 -1057.36 -1057.36 -1057.91 -1057.91 -1058.39 -1058.39 -1058.8 -1058.8 -1059.14 -1059.14 -1059.41 -1059.41 -1059.62 -1059.62 -1059.76 -1059.76 -1059.83 -1059.83 -1059.84 -1059.84 -1059.78 -1059.78 -1059.66 -1059.66 -1059.48 -1059.48 -1059.24 -1059.24 -1058.93 -1058.93 -1058.56 -1058.56 -1058.13 -1058.13 -1057.64 -1057.64 -1057.09 -1057.09 -1056.49 -1056.49 -1055.82 -1055.82 -1055.1 -1055.1 -1054.32 -1054.32 -1053.49 -1053.49 -1052.6 -1052.6 -1051.65 -1051.65 -1050.65 -1050.65 -1049.6 -1049.6 -1048.49 -1048.49 -1047.33 -1047.33 -1046.12 -1046.12 -1044.86 -1044.86 -1043.55 -1043.55 -1042.19 -1042.19 -1040.78 -1040.78 -1039.32 -1039.32 -1037.81 -1037.81 -1036.25 -1036.25 -1034.65 -1034.65 -1033 -1033 -1031.31 -1031.31 -1029.57 -1029.57 -1027.79 -1027.79 -1025.96 -1025.96 -1024.09 -1024.09 -1022.18 -1022.18 -1020.22 -1020.22 -1018.22 -1018.22 -1016.19 -1016.19 -1014.11 -1014.11 -1011.99 -1011.99 -1009.83 -1009.83 -1007.64 -1007.64 -1005.4 -1005.4 -1003.13 -1003.13 -1000.83 -1000.83 -998.481 -998.481 -996.101 -996.101 -993.685 -993.685 -991.235 -991.235 -988.751 -988.751 -986.232 -986.232 -983.681 -983.681 -981.098 -981.098 -978.482 -978.482 -975.835 -975.835 -973.156 -973.156 -970.448 -970.448 -967.709 -967.709 -964.941 -964.941 -962.144 -962.144 -959.319 -959.319 -956.466 -956.466 -953.585 -953.585 -950.677 -950.677 -947.744 -947.744 -944.784 -944.784 -941.799 -941.799 -938.789 -938.789 -935.754 -935.754 -932.696 -932.696 -929.614 -929.614 -926.509 -926.509 -923.381 -923.381 -920.232 -920.232 -917.06 -917.06 -913.868 -913.868 -910.655 -910.655 -907.422 -907.422 -904.168 -904.168 -900.896 -900.896 -897.605 -897.605 -894.295 -894.295 -890.967 -890.967 -887.621 -887.621 -884.258 -884.258 -880.879 -880.879 -877.483 -877.483 -874.071 -874.071 -870.644 -870.644 -867.201 -867.201 -863.744 -863.744 -860.273 -860.273 -856.787 -856.787 -853.288 -853.288 -849.776 -849.776 -846.251 -846.251 -842.714 -842.714 -839.165 -839.165 -835.604 -835.604 -832.032 -832.032 -828.449 -828.449 -824.856 -824.856 -821.252 -821.252 -817.639 -817.639 -814.016 -814.016 -810.384 -810.384 -806.744 -806.744 -803.095 -803.095 -799.438 -799.438 -795.773 -795.773 -792.101 -792.101 -788.421 -788.421 -784.735 -784.735 -781.043 -781.043 -777.344 -777.344 -773.64 -773.64 -769.931 -769.931 -766.216 -766.216 -762.496 -762.496 -758.772 -758.772 -755.043 -755.043 -751.311 -751.311 -747.575 -747.575 -743.835 -743.835 -740.092 -740.092 -736.347 -736.347 -732.599 -732.599 -728.849 -728.849 -725.097 -725.097 -721.343 -721.343 -717.587 -717.587 -713.831 -713.831 -710.073 -710.073 -706.315 -706.315 -702.557 -702.557 -698.798 -698.798 -695.039 -695.039 -691.281 -691.281 -687.523 -687.523 -683.766 -683.766 -680.01 -680.01 -676.255 -676.255 -672.502 -672.502 -668.75 -668.75 -665 -665 -661.253 -661.253 -657.508 -657.508 -653.765 -653.765 -650.025 -650.025 -646.288 -646.288 -642.555 -642.555 -638.824 -638.824 -635.097 -635.097 -631.374 -631.374 -627.655 -627.655 -623.941 -623.941 -620.23 -620.23 -616.524 -616.524 -612.823 -612.823 -609.126 -609.126 -605.435 -605.435 -601.749 -601.749 -598.068 -598.068 -594.393 -594.393 -590.723 -590.723 -587.059 -587.059 -583.402 -583.402 -579.75 -579.75 -576.105 -576.105 -572.467 -572.467 -568.835 -568.835 -565.21 -565.21 -561.592 -561.592 -557.98 -557.98 -554.377 -554.377 -550.78 -550.78 -547.191 -547.191 -543.609 -543.609 -540.036 -540.036 -536.47 -536.47 -532.912 -532.912 -529.362 -529.362 -525.821 -525.821 -522.288 -522.288 -518.763 -518.763 -515.247 -515.247 -511.739 -511.739 -508.241 -508.241 -504.751 -504.751 -501.27 -501.27 -497.799 -497.799 -494.336 -494.336 -490.883 -490.883 -487.44 -487.44 -484.005 -484.005 -480.581 -480.581 -477.166 -477.166 -473.761 -473.761 -470.365 -470.365 -466.98 -466.98 -463.605 -463.605 -460.239 -460.239 -456.884 -456.884 -453.54 -453.54 -450.205 -450.205 -446.881 -446.881 -443.567 -443.567 -440.264 -440.264 -436.972 -436.972 -433.69 -433.69 -430.419 -430.419 -427.159 -427.159 -423.909 -423.909 -420.671 -420.671 -417.444 -417.444 -414.227 -414.227 -411.022 -411.022 -407.828 -407.828 -404.645 -404.645 -401.473 -401.473 -398.313 -398.313 -395.164 -395.164 -392.026 -392.026 -388.9 -388.9 -385.785 -385.785 -382.682 -382.682 -379.59 -379.59 -376.51 -376.51 -373.442 -373.442 -370.385 -370.385 -367.34 -367.34 -364.307 -364.307 -361.285 -361.285 -358.275 -358.275 -355.277 -355.277 -352.291 -352.291 -349.317 -349.317 -346.355 -346.355 -343.405 -343.405 -340.466 -340.466 -337.54 -337.54 -334.625 -334.625 -331.723 -331.723 -328.832 -328.832 -325.954 -325.954 -323.088 -323.088 -320.234 -320.234 -317.391 -317.391 -314.561 -314.561 -311.743 -311.743 -308.938 -308.938 -306.144 -306.144 -303.362 -303.362 -300.593 -300.593 -297.836 -297.836 -295.09 -295.09 -292.357 -292.357 -289.637 -289.637 -286.928 -286.928 -284.231 -284.231 -281.547 -281.547 -278.875 -278.875 -276.215 -276.215 -273.567 -273.567 -270.931 -270.931 -268.307 -268.307 -265.695 -265.695 -263.096 -263.096 -260.509 -260.509 -257.933 -257.933 -255.37 -255.37 -252.819 -252.819 -250.28 -250.28 -247.753 -247.753 -245.238 -245.238 -242.736 -242.736 -240.245 -240.245 -237.766 -237.766 -235.299 -235.299 -232.844 -232.844 -230.401 -230.401 -227.97 -227.97 -225.551 -225.551 -223.144 -223.144 -220.749 -220.749 -218.365 -218.365 -215.994 -215.994 -213.634 -213.634 -211.286 -211.286 -208.95 -208.95 -206.625 -206.625 -204.312 -204.312 -202.011 -202.011 -199.722 -199.722 -197.444 -197.444 -195.178 -195.178 -192.924 -192.924 -190.681 -190.681 -188.449 -188.449 -186.229 -186.229 -184.021 -184.021 -181.824 -181.824 -179.639 -179.639 -177.465 -177.465 -175.302 -175.302 -173.15 -173.15 -171.01 -171.01 -168.881 -168.881 -166.764 -166.764 -164.658 -164.658 -162.562 -162.562 -160.478 -160.478 -158.405 -158.405 -156.344 -156.344 -154.293 -154.293 -152.253 -152.253 -150.224 -150.224 -148.206 -148.206 -146.199 -146.199 -144.203 -144.203 -142.218 -142.218 -140.244 -140.244 -138.28 -138.28 -136.327 -136.327 -134.385 -134.385 -132.453 -132.453 -130.532 -130.532 -128.622 -128.622 -126.722 -126.722 -124.832 -124.832 -122.953 -122.953 -121.085 -121.085 -119.227 -119.227 -117.379 -117.379 -115.542 -115.542 -113.715 -113.715 -111.898 -111.898 -110.091 -110.091 -108.294 -108.294 -106.508 -106.508 -104.731 -104.731 -102.965 -102.965 -101.209 -101.209 -99.4624 -99.4624 -97.7259 -97.7259 -95.9993 -95.9993 -94.2825 -94.2825 -92.5755 -92.5755 -90.8783 -90.8783 -89.1908 -89.1908 -87.513 -87.513 -85.8447 -85.8447 -84.1861 -84.1861 -82.537 -82.537 -80.8975 -80.8975 -79.2674 -79.2674 -77.6467 -77.6467 -76.0354 -76.0354 -74.4334 -74.4334 -72.8408 -72.8408 -71.2574 -71.2574 -69.6832 -69.6832 -68.1182 -68.1182 -66.5623 -66.5623 -65.0155 -65.0155 -63.4778 -63.4778 -61.9491 -61.9491 -60.4294 -60.4294 -58.9185 -58.9185 -57.4166 -57.4166 -55.9235 -55.9235 -54.4392 -54.4392 -52.9637 -52.9637 -51.4969 -51.4969 -50.0387 -50.0387 -48.5892 -48.5892 -47.1483 -47.1483 -45.716 -45.716 -44.2922 -44.2922 -42.8768 -42.8768 -41.4699 -41.4699 -40.0713 -40.0713 -38.6811 -38.6811 -37.2992 -37.2992 -35.9256 -35.9256 -34.5602 -34.5602 -33.203 -33.203 -31.854 -31.854 -30.513 -30.513 -29.1801 -29.1801 -27.8552 -27.8552 -26.5384 -26.5384 -25.2294 -25.2294 -23.9284 -23.9284 -22.6352 -22.6352 -21.3498 -21.3498 -20.0723 -20.0723 -18.8024 -18.8024 -17.5403 -17.5403 -16.2858 -16.2858 -15.039 -15.039 -13.7998 -13.7998 -12.5681 -12.5681 -11.3439 -11.3439 -10.1272 -10.1272 -8.91787 -8.91787 -7.71598 -7.71598 -6.52145 -6.52145 -5.33423 -5.33423 -4.15429 -4.15429 -2.98159 -2.98159 -1.8161 -1.8161 -0.657774 -0.657774 0.493419 0.493419 1.63752 1.63752 2.77456 2.77456 3.90458 3.90458 5.02762 5.02762 6.14371 6.14371 7.25289 7.25289 8.35519 8.35519 9.45064 9.45064 10.5393 10.5393 11.6212 11.6212 12.6963 12.6963 13.7648 13.7648 14.8265 14.8265 15.8817 15.8817 16.9302 16.9302 17.9722 17.9722 19.0076 19.0076 20.0365 20.0365 21.059 21.059 22.075 22.075 23.0847 23.0847 24.0879 24.0879 25.0848 25.0848 26.0754 26.0754 27.0597 27.0597 28.0378 28.0378 29.0097 29.0097 29.9754 29.9754 30.9349 30.9349 31.8883 31.8883 32.8356 32.8356 33.7768 33.7768 34.712 34.712 35.6412 35.6412 36.5644 36.5644 37.4817 37.4817 38.393 38.393 39.2985 39.2985 40.1981 40.1981 41.0918 41.0918 41.9798 41.9798 42.862 42.862 43.7384 43.7384 44.6091 44.6091 45.4741 45.4741 46.3335 46.3335 47.1872 47.1872 48.0353 48.0353 48.8779 48.8779 49.7149 49.7149 50.5464 50.5464 51.3724 51.3724 52.193 52.193 53.0081 53.0081 53.8178 53.8178 54.6222 54.6222 55.4213 55.4213 56.215 56.215 57.0035 57.0035 57.7868 57.7868 58.5649 58.5649 59.3378 59.3378 60.1056 60.1056 60.8682 60.8682 61.6259 61.6259 62.3785 62.3785 63.1261 63.1261 63.8688 63.8688 64.6066 64.6066 65.3395 65.3395 66.0676 66.0676 66.7909 66.7909 67.5094 67.5094 68.2232 68.2232 68.9324 68.9324 69.6369 69.6369 70.3369 70.3369 71.0323 71.0323 71.7232 71.7232 72.4096 72.4096 73.0917 73.0917 73.7693 73.7693 74.4426 74.4426 75.1117 75.1117 75.7764 75.7764 76.437 76.437 77.0934 77.0934 77.7457 77.7457 78.3938 78.3938 79.038 79.038 79.6781 79.6781 80.3142 80.3142 80.9464 80.9464 81.5747 81.5747 82.1991 82.1991 82.8196 82.8196 83.4364 83.4364 84.0494 84.0494 84.6586 84.6586 85.2641 85.2641 85.8658 85.8658 86.4639 86.4639 87.0583 87.0583 87.6491 87.6491 88.2362 88.2362 88.8197 88.8197 89.3996 89.3996 89.9758 89.9758 90.5485 90.5485 91.1175 91.1175 91.683 91.683 92.2448 92.2448 92.8031 92.8031 93.3577 93.3577 93.9087 93.9087 94.4561 94.4561 94.9998 94.9998 95.5398 95.5398 96.0762 96.0762 96.6089 96.6089 97.1378 97.1378 97.663 97.663 98.1844 98.1844 98.702 98.702 99.2158 99.2158 99.7257 99.7257 100.232 100.232 100.734 100.734 101.232 101.232 101.726 101.726 102.216 102.216 102.702 102.702 103.184 103.184 103.662 103.662 104.136 104.136 104.605 104.605 105.071 105.071 105.532 105.532 105.989 105.989 106.441 106.441 106.889 106.889 107.333 107.333 107.772 107.772 108.207 108.207 108.638 108.638 109.064 109.064 109.485 109.485 109.902 109.902 110.315 110.315 110.723 110.723 111.126 111.126 111.525 111.525 111.92 111.92 112.31 112.31 112.695 112.695 113.076 113.076 113.452 113.452 113.824 113.824 114.191 114.191 114.554 114.554 114.912 114.912 115.266 115.266 115.616 115.616 115.961 115.961 116.301 116.301 116.638 116.638 116.969 116.969 117.297 117.297 117.62 117.62 117.94 117.94 118.255 118.255 118.565 118.565 118.872 118.872 119.174 119.174 119.473 119.473 119.767 119.767 120.058 120.058 120.344 120.344 120.627 120.627 120.906 120.906 121.181 121.181 121.452 121.452 121.72 121.72 121.984 121.984 122.244 122.244 122.5 122.5 122.753 122.753 123.003 123.003 123.249 123.249 123.491 123.491 123.73 123.73 123.966 123.966 124.198 124.198 124.427 124.427 124.653 124.653 124.875 124.875 125.094 125.094 125.31 125.31 125.523 125.523 125.732 125.732 125.939 125.939 126.142 126.142 126.342 126.342 126.539 126.539 126.733 126.733 126.923 126.923 127.111 127.111 127.296 127.296 127.477 127.477 127.656 127.656 127.831 127.831 128.003 128.003 128.173 128.173 128.339 128.339 128.502 128.502 128.663 128.663 128.82 128.82 128.974 128.974 129.125 129.125 129.274 129.274 129.419 129.419 129.561 129.561 129.7 129.7 129.836 129.836 129.968 129.968 130.098 130.098 130.225 130.225 130.349 130.349 130.469 130.469 130.586 130.586 130.701 130.701 130.812 130.812 130.92 130.92 131.025 131.025 131.126 131.126 131.225 131.225 131.32 131.32 131.412 131.412 131.501 131.501 131.587 131.587 131.67 131.67 131.749 131.749 131.825 131.825 131.898 131.898 131.967 131.967 132.034 132.034 132.097 132.097 132.156 132.156 132.213 132.213 132.266 132.266 132.316 132.316 132.362 132.362 132.405 132.405 132.445 132.445 132.481 132.481 132.514 132.514 132.544 132.544 132.57 132.57 132.593 132.593 132.613 132.613 132.629 132.629 132.642 132.642 132.651 132.651 132.657 132.657 132.659 132.659 132.658 132.658 132.654 132.654 132.646 132.646 132.635 132.635 132.62 132.62 132.602 132.602 132.58 132.58 132.555 132.555 132.527 132.527 132.495 132.495 132.459 132.459 132.42 132.42 132.378 132.378 132.332 132.332 132.283 132.283 132.23 132.23 132.174 132.174 132.114 132.114 132.051 132.051 131.984 131.984 131.913 131.913 131.84 131.84 131.763 131.763 131.682 131.682 131.598 131.598 131.51 131.51 131.419 131.419 131.324 131.324 131.226 131.226 131.124 131.124 131.019 131.019 130.911 130.911 130.799 130.799 130.683 130.683 130.564 130.564 130.442 130.442 130.316 130.316 130.186 130.186 130.053 130.053 129.917 129.917 129.777 129.777 129.634 129.634 129.487 129.487 129.337 129.337 129.184 129.184 129.027 129.027 128.866 128.866 128.702 128.702 128.535 128.535 128.364 128.364 128.19 128.19 128.013 128.013 127.832 127.832 127.648 127.648 127.46 127.46 127.269 127.269 127.075 127.075 126.877 126.877 126.676 126.676 126.472 126.472 126.264 126.264 126.053 126.053 125.839 125.839 125.621 125.621 125.401 125.401 125.177 125.177 124.949 124.949 124.719 124.719 124.485 124.485 124.248 124.248 124.008 124.008 123.765 123.765 123.518 123.518 123.268 123.268 123.016 123.016 122.76 122.76 122.501 122.501 122.238 122.238 121.973 121.973 121.705 121.705 121.434 121.434 121.159 121.159 120.882 120.882 120.602 120.602 120.319 120.319 120.033 120.033 119.743 119.743 119.452 119.452 119.157 119.157 118.859 118.859 118.559 118.559 118.255 118.255 117.949 117.949 117.64 117.64 117.329 117.329 117.015 117.015 116.698 116.698 116.378 116.378 116.056 116.056 115.731 115.731 115.404 115.404 115.074 115.074 114.742 114.742 114.407 114.407 114.07 114.07 113.73 113.73 113.388 113.388 113.044 113.044 112.697 112.697 112.348 112.348 111.997 111.997 111.644 111.644 111.288 111.288 110.931 110.931 110.571 110.571 110.21 110.21 109.846 109.846 109.48 109.48 109.113 109.113 108.743 108.743 108.372 108.372 107.999 107.999 107.624 107.624 107.248 107.248 106.87 106.87 106.49 106.49 106.109 106.109 105.726 105.726 105.342 105.342 104.956 104.956 104.569 104.569 104.181 104.181 103.791 103.791 103.401 103.401 103.009 103.009 102.616 102.616 102.222 102.222 101.827 101.827 101.431 101.431 101.035 101.035 100.637 100.637 100.239 100.239 99.8402 99.8402 99.4408 99.4408 99.0408 99.0408 98.6405 98.6405 98.2397 98.2397 97.8386 97.8386 97.4372 97.4372 97.0356 97.0356 96.6339 96.6339 96.2322 96.2322 95.8305 95.8305 95.4289 95.4289 95.0275 95.0275 94.6263 94.6263 94.2254 94.2254 93.825 93.825 93.425 93.425 93.0257 93.0257 92.6269 92.6269 92.2289 92.2289 91.8317 91.8317 91.4354 91.4354 91.0402 91.0402 90.646 90.646 90.2529 90.2529 89.8611 89.8611 89.4707 89.4707 89.0817 89.0817 88.6942 88.6942 88.3084 88.3084 87.9243 87.9243 87.542 87.542 87.1617 87.1617 86.7833 86.7833 86.4071 86.4071 86.0332 86.0332 85.6615 85.6615 85.2924 85.2924 84.9257 84.9257 84.5617 84.5617 84.2005 84.2005 83.8421 83.8421 83.4868 83.4868 83.1345 83.1345 82.7855 82.7855 82.4398 82.4398 82.0975 82.0975 81.7589 81.7589 81.4239 81.4239 81.0927 81.0927 80.7655 80.7655 80.4423 80.4423 80.1234 80.1234 79.8087 79.8087 79.4985 79.4985 79.1929 79.1929 78.892 78.892 78.596 78.596 78.3049 78.3049 78.019 78.019 77.7383 77.7383 77.463 
SCALARS solution_1 double 1
LOOKUP_TABLE default