# vtk DataFile Version 3.0
#This file was generated by the deal.II library on 2020/9/1 at 15:06:51
ASCII
DATASET UNSTRUCTURED_GRID

POINTS 2048 double
1.5 0 0
1.59619 0 0
1.59619 0 0
1.69238 0 0
1.69238 0 0
1.78857 0 0
1.78857 0 0
1.88477 0 0
1.88477 0 0
1.98096 0 0
1.98096 0 0
2.07715 0 0
2.07715 0 0
2.17334 0 0
2.17334 0 0
2.26953 0 0
2.26953 0 0
2.36572 0 0
2.36572 0 0
2.46191 0 0
2.46191 0 0
2.55811 0 0
2.55811 0 0
2.6543 0 0
2.6543 0 0
2.75049 0 0
2.75049 0 0
2.84668 0 0
2.84668 0 0
2.94287 0 0
2.94287 0 0
3.03906 0 0
3.03906 0 0
3.13525 0 0
3.13525 0 0
3.23145 0 0
3.23145 0 0
3.32764 0 0
3.32764 0 0
3.42383 0 0
3.42383 0 0
3.52002 0 0
3.52002 0 0
3.61621 0 0
3.61621 0 0
3.7124 0 0
3.7124 0 0
3.80859 0 0
3.80859 0 0
3.90479 0 0
3.90479 0 0
4.00098 0 0
4.00098 0 0
4.09717 0 0
4.09717 0 0
4.19336 0 0
4.19336 0 0
4.28955 0 0
4.28955 0 0
4.38574 0 0
4.38574 0 0
4.48193 0 0
4.48193 0 0
4.57812 0 0
4.57812 0 0
4.67432 0 0
4.67432 0 0
4.77051 0 0
4.77051 0 0
4.8667 0 0
4.8667 0 0
4.96289 0 0
4.96289 0 0
5.05908 0 0
5.05908 0 0
5.15527 0 0
5.15527 0 0
5.25146 0 0
5.25146 0 0
5.34766 0 0
5.34766 0 0
5.44385 0 0
5.44385 0 0
5.54004 0 0
5.54004 0 0
5.63623 0 0
5.63623 0 0
5.73242 0 0
5.73242 0 0
5.82861 0 0
5.82861 0 0
5.9248 0 0
5.9248 0 0
6.021 0 0
6.021 0 0
6.11719 0 0
6.11719 0 0
6.21338 0 0
6.21338 0 0
6.30957 0 0
6.30957 0 0
6.40576 0 0
6.40576 0 0
6.50195 0 0
6.50195 0 0
6.59814 0 0
6.59814 0 0
6.69434 0 0
6.69434 0 0
6.79053 0 0
6.79053 0 0
6.88672 0 0
6.88672 0 0
6.98291 0 0
6.98291 0 0
7.0791 0 0
7.0791 0 0
7.17529 0 0
7.17529 0 0
7.27148 0 0
7.27148 0 0
7.36768 0 0
7.36768 0 0
7.46387 0 0
7.46387 0 0
7.56006 0 0
7.56006 0 0
7.65625 0 0
7.65625 0 0
7.75244 0 0
7.75244 0 0
7.84863 0 0
7.84863 0 0
7.94482 0 0
7.94482 0 0
8.04102 0 0
8.04102 0 0
8.13721 0 0
8.13721 0 0
8.2334 0 0
8.2334 0 0
8.32959 0 0
8.32959 0 0
8.42578 0 0
8.42578 0 0
8.52197 0 0
8.52197 0 0
8.61816 0 0
8.61816 0 0
8.71436 0 0
8.71436 0 0
8.81055 0 0
8.81055 0 0
8.90674 0 0
8.90674 0 0
9.00293 0 0
9.00293 0 0
9.09912 0 0
9.09912 0 0
9.19531 0 0
9.19531 0 0
9.2915 0 0
9.2915 0 0
9.3877 0 0
9.3877 0 0
9.48389 0 0
9.48389 0 0
9.58008 0 0
9.58008 0 0
9.67627 0 0
9.67627 0 0
9.77246 0 0
9.77246 0 0
9.86865 0 0
9.86865 0 0
9.96484 0 0
9.96484 0 0
10.061 0 0
10.061 0 0
10.1572 0 0
10.1572 0 0
10.2534 0 0
10.2534 0 0
10.3496 0 0
10.3496 0 0
10.4458 0 0
10.4458 0 0
10.542 0 0
10.542 0 0
10.6382 0 0
10.6382 0 0
10.7344 0 0
10.7344 0 0
10.8306 0 0
10.8306 0 0
10.9268 0 0
10.9268 0 0
11.0229 0 0
11.0229 0 0
11.1191 0 0
11.1191 0 0
11.2153 0 0
11.2153 0 0
11.3115 0 0
11.3115 0 0
11.4077 0 0
11.4077 0 0
11.5039 0 0
11.5039 0 0
11.6001 0 0
11.6001 0 0
11.6963 0 0
11.6963 0 0
11.7925 0 0
11.7925 0 0
11.8887 0 0
11.8887 0 0
11.9849 0 0
11.9849 0 0
12.0811 0 0
12.0811 0 0
12.1772 0 0
12.1772 0 0
12.2734 0 0
12.2734 0 0
12.3696 0 0
12.3696 0 0
12.4658 0 0
12.4658 0 0
12.562 0 0
12.562 0 0
12.6582 0 0
12.6582 0 0
12.7544 0 0
12.7544 0 0
12.8506 0 0
12.8506 0 0
12.9468 0 0
12.9468 0 0
13.043 0 0
13.043 0 0
13.1392 0 0
13.1392 0 0
13.2354 0 0
13.2354 0 0
13.3315 0 0
13.3315 0 0
13.4277 0 0
13.4277 0 0
13.5239 0 0
13.5239 0 0
13.6201 0 0
13.6201 0 0
13.7163 0 0
13.7163 0 0
13.8125 0 0
13.8125 0 0
13.9087 0 0
13.9087 0 0
14.0049 0 0
14.0049 0 0
14.1011 0 0
14.1011 0 0
14.1973 0 0
14.1973 0 0
14.2935 0 0
14.2935 0 0
14.3896 0 0
14.3896 0 0
14.4858 0 0
14.4858 0 0
14.582 0 0
14.582 0 0
14.6782 0 0
14.6782 0 0
14.7744 0 0
14.7744 0 0
14.8706 0 0
14.8706 0 0
14.9668 0 0
14.9668 0 0
15.063 0 0
15.063 0 0
15.1592 0 0
15.1592 0 0
15.2554 0 0
15.2554 0 0
15.3516 0 0
15.3516 0 0
15.4478 0 0
15.4478 0 0
15.5439 0 0
15.5439 0 0
15.6401 0 0
15.6401 0 0
15.7363 0 0
15.7363 0 0
15.8325 0 0
15.8325 0 0
15.9287 0 0
15.9287 0 0
16.0249 0 0
16.0249 0 0
16.1211 0 0
16.1211 0 0
16.2173 0 0
16.2173 0 0
16.3135 0 0
16.3135 0 0
16.4097 0 0
16.4097 0 0
16.5059 0 0
16.5059 0 0
16.6021 0 0
16.6021 0 0
16.6982 0 0
16.6982 0 0
16.7944 0 0
16.7944 0 0
16.8906 0 0
16.8906 0 0
16.9868 0 0
16.9868 0 0
17.083 0 0
17.083 0 0
17.1792 0 0
17.1792 0 0
17.2754 0 0
17.2754 0 0
17.3716 0 0
17.3716 0 0
17.4678 0 0
17.4678 0 0
17.564 0 0
17.564 0 0
17.6602 0 0
17.6602 0 0
17.7563 0 0
17.7563 0 0
17.8525 0 0
17.8525 0 0
17.9487 0 0
17.9487 0 0
18.0449 0 0
18.0449 0 0
18.1411 0 0
18.1411 0 0
18.2373 0 0
18.2373 0 0
18.3335 0 0
18.3335 0 0
18.4297 0 0
18.4297 0 0
18.5259 0 0
18.5259 0 0
18.6221 0 0
18.6221 0 0
18.7183 0 0
18.7183 0 0
18.8145 0 0
18.8145 0 0
18.9106 0 0
18.9106 0 0
19.0068 0 0
19.0068 0 0
19.103 0 0
19.103 0 0
19.1992 0 0
19.1992 0 0
19.2954 0 0
19.2954 0 0
19.3916 0 0
19.3916 0 0
19.4878 0 0
19.4878 0 0
19.584 0 0
19.584 0 0
19.6802 0 0
19.6802 0 0
19.7764 0 0
19.7764 0 0
19.8726 0 0
19.8726 0 0
19.9688 0 0
19.9688 0 0
20.0649 0 0
20.0649 0 0
20.1611 0 0
20.1611 0 0
20.2573 0 0
20.2573 0 0
20.3535 0 0
20.3535 0 0
20.4497 0 0
20.4497 0 0
20.5459 0 0
20.5459 0 0
20.6421 0 0
20.6421 0 0
20.7383 0 0
20.7383 0 0
20.8345 0 0
20.8345 0 0
20.9307 0 0
20.9307 0 0
21.0269 0 0
21.0269 0 0
21.123 0 0
21.123 0 0
21.2192 0 0
21.2192 0 0
21.3154 0 0
21.3154 0 0
21.4116 0 0
21.4116 0 0
21.5078 0 0
21.5078 0 0
21.604 0 0
21.604 0 0
21.7002 0 0
21.7002 0 0
21.7964 0 0
21.7964 0 0
21.8926 0 0
21.8926 0 0
21.9888 0 0
21.9888 0 0
22.085 0 0
22.085 0 0
22.1812 0 0
22.1812 0 0
22.2773 0 0
22.2773 0 0
22.3735 0 0
22.3735 0 0
22.4697 0 0
22.4697 0 0
22.5659 0 0
22.5659 0 0
22.6621 0 0
22.6621 0 0
22.7583 0 0
22.7583 0 0
22.8545 0 0
22.8545 0 0
22.9507 0 0
22.9507 0 0
23.0469 0 0
23.0469 0 0
23.1431 0 0
23.1431 0 0
23.2393 0 0
23.2393 0 0
23.3354 0 0
23.3354 0 0
23.4316 0 0
23.4316 0 0
23.5278 0 0
23.5278 0 0
23.624 0 0
23.624 0 0
23.7202 0 0
23.7202 0 0
23.8164 0 0
23.8164 0 0
23.9126 0 0
23.9126 0 0
24.0088 0 0
24.0088 0 0
24.105 0 0
24.105 0 0
24.2012 0 0
24.2012 0 0
24.2974 0 0
24.2974 0 0
24.3936 0 0
24.3936 0 0
24.4897 0 0
24.4897 0 0
24.5859 0 0
24.5859 0 0
24.6821 0 0
24.6821 0 0
24.7783 0 0
24.7783 0 0
24.8745 0 0
24.8745 0 0
24.9707 0 0
24.9707 0 0
25.0669 0 0
25.0669 0 0
25.1631 0 0
25.1631 0 0
25.2593 0 0
25.2593 0 0
25.3555 0 0
25.3555 0 0
25.4517 0 0
25.4517 0 0
25.5479 0 0
25.5479 0 0
25.644 0 0
25.644 0 0
25.7402 0 0
25.7402 0 0
25.8364 0 0
25.8364 0 0
25.9326 0 0
25.9326 0 0
26.0288 0 0
26.0288 0 0
26.125 0 0
26.125 0 0
26.2212 0 0
26.2212 0 0
26.3174 0 0
26.3174 0 0
26.4136 0 0
26.4136 0 0
26.5098 0 0
26.5098 0 0
26.606 0 0
26.606 0 0
26.7021 0 0
26.7021 0 0
26.7983 0 0
26.7983 0 0
26.8945 0 0
26.8945 0 0
26.9907 0 0
26.9907 0 0
27.0869 0 0
27.0869 0 0
27.1831 0 0
27.1831 0 0
27.2793 0 0
27.2793 0 0
27.3755 0 0
27.3755 0 0
27.4717 0 0
27.4717 0 0
27.5679 0 0
27.5679 0 0
27.6641 0 0
27.6641 0 0
27.7603 0 0
27.7603 0 0
27.8564 0 0
27.8564 0 0
27.9526 0 0
27.9526 0 0
28.0488 0 0
28.0488 0 0
28.145 0 0
28.145 0 0
28.2412 0 0
28.2412 0 0
28.3374 0 0
28.3374 0 0
28.4336 0 0
28.4336 0 0
28.5298 0 0
28.5298 0 0
28.626 0 0
28.626 0 0
28.7222 0 0
28.7222 0 0
28.8184 0 0
28.8184 0 0
28.9146 0 0
28.9146 0 0
29.0107 0 0
29.0107 0 0
29.1069 0 0
29.1069 0 0
29.2031 0 0
29.2031 0 0
29.2993 0 0
29.2993 0 0
29.3955 0 0
29.3955 0 0
29.4917 0 0
29.4917 0 0
29.5879 0 0
29.5879 0 0
29.6841 0 0
29.6841 0 0
29.7803 0 0
29.7803 0 0
29.8765 0 0
29.8765 0 0
29.9727 0 0
29.9727 0 0
30.0688 0 0
30.0688 0 0
30.165 0 0
30.165 0 0
30.2612 0 0
30.2612 0 0
30.3574 0 0
30.3574 0 0
30.4536 0 0
30.4536 0 0
30.5498 0 0
30.5498 0 0
30.646 0 0
30.646 0 0
30.7422 0 0
30.7422 0 0
30.8384 0 0
30.8384 0 0
30.9346 0 0
30.9346 0 0
31.0308 0 0
31.0308 0 0
31.127 0 0
31.127 0 0
31.2231 0 0
31.2231 0 0
31.3193 0 0
31.3193 0 0
31.4155 0 0
31.4155 0 0
31.5117 0 0
31.5117 0 0
31.6079 0 0
31.6079 0 0
31.7041 0 0
31.7041 0 0
31.8003 0 0
31.8003 0 0
31.8965 0 0
31.8965 0 0
31.9927 0 0
31.9927 0 0
32.0889 0 0
32.0889 0 0
32.1851 0 0
32.1851 0 0
32.2812 0 0
32.2812 0 0
32.3774 0 0
32.3774 0 0
32.4736 0 0
32.4736 0 0
32.5698 0 0
32.5698 0 0
32.666 0 0
32.666 0 0
32.7622 0 0
32.7622 0 0
32.8584 0 0
32.8584 0 0
32.9546 0 0
32.9546 0 0
33.0508 0 0
33.0508 0 0
33.147 0 0
33.147 0 0
33.2432 0 0
33.2432 0 0
33.3394 0 0
33.3394 0 0
33.4355 0 0
33.4355 0 0
33.5317 0 0
33.5317 0 0
33.6279 0 0
33.6279 0 0
33.7241 0 0
33.7241 0 0
33.8203 0 0
33.8203 0 0
33.9165 0 0
33.9165 0 0
34.0127 0 0
34.0127 0 0
34.1089 0 0
34.1089 0 0
34.2051 0 0
34.2051 0 0
34.3013 0 0
34.3013 0 0
34.3975 0 0
34.3975 0 0
34.4937 0 0
34.4937 0 0
34.5898 0 0
34.5898 0 0
34.686 0 0
34.686 0 0
34.7822 0 0
34.7822 0 0
34.8784 0 0
34.8784 0 0
34.9746 0 0
34.9746 0 0
35.0708 0 0
35.0708 0 0
35.167 0 0
35.167 0 0
35.2632 0 0
35.2632 0 0
35.3594 0 0
35.3594 0 0
35.4556 0 0
35.4556 0 0
35.5518 0 0
35.5518 0 0
35.6479 0 0
35.6479 0 0
35.7441 0 0
35.7441 0 0
35.8403 0 0
35.8403 0 0
35.9365 0 0
35.9365 0 0
36.0327 0 0
36.0327 0 0
36.1289 0 0
36.1289 0 0
36.2251 0 0
36.2251 0 0
36.3213 0 0
36.3213 0 0
36.4175 0 0
36.4175 0 0
36.5137 0 0
36.5137 0 0
36.6099 0 0
36.6099 0 0
36.7061 0 0
36.7061 0 0
36.8022 0 0
36.8022 0 0
36.8984 0 0
36.8984 0 0
36.9946 0 0
36.9946 0 0
37.0908 0 0
37.0908 0 0
37.187 0 0
37.187 0 0
37.2832 0 0
37.2832 0 0
37.3794 0 0
37.3794 0 0
37.4756 0 0
37.4756 0 0
37.5718 0 0
37.5718 0 0
37.668 0 0
37.668 0 0
37.7642 0 0
37.7642 0 0
37.8604 0 0
37.8604 0 0
37.9565 0 0
37.9565 0 0
38.0527 0 0
38.0527 0 0
38.1489 0 0
38.1489 0 0
38.2451 0 0
38.2451 0 0
38.3413 0 0
38.3413 0 0
38.4375 0 0
38.4375 0 0
38.5337 0 0
38.5337 0 0
38.6299 0 0
38.6299 0 0
38.7261 0 0
38.7261 0 0
38.8223 0 0
38.8223 0 0
38.9185 0 0
38.9185 0 0
39.0146 0 0
39.0146 0 0
39.1108 0 0
39.1108 0 0
39.207 0 0
39.207 0 0
39.3032 0 0
39.3032 0 0
39.3994 0 0
39.3994 0 0
39.4956 0 0
39.4956 0 0
39.5918 0 0
39.5918 0 0
39.688 0 0
39.688 0 0
39.7842 0 0
39.7842 0 0
39.8804 0 0
39.8804 0 0
39.9766 0 0
39.9766 0 0
40.0728 0 0
40.0728 0 0
40.1689 0 0
40.1689 0 0
40.2651 0 0
40.2651 0 0
40.3613 0 0
40.3613 0 0
40.4575 0 0
40.4575 0 0
40.5537 0 0
40.5537 0 0
40.6499 0 0
40.6499 0 0
40.7461 0 0
40.7461 0 0
40.8423 0 0
40.8423 0 0
40.9385 0 0
40.9385 0 0
41.0347 0 0
41.0347 0 0
41.1309 0 0
41.1309 0 0
41.2271 0 0
41.2271 0 0
[...]
POINT_DATA 2048
SCALARS solution_0 double 1
LOOKUP_TABLE default
2980.28 2905.51 2905.51 2838.33 2838.33 2777.86 2777.86 2723.29 2723.29 2673.88 2673.88 2628.99 2628.99 2588.04 2588.04 2550.54 2550.54 2516.04 2516.04 2484.17 2484.17 2454.58 2454.58 2427 2427 2401.17 2401.17 2376.85 2376.85 2353.86 2353.86 2332.03 2332.03 2311.19 2311.19 2291.22 2291.22 2272.01 2272.01 2253.44 2253.44 2235.43 2235.43 2217.89 2217.89 2200.76 2200.76 2183.97 2183.97 2167.46 2167.46 2151.18 2151.18 2135.1 2135.1 2119.17 2119.17 2103.35 2103.35 2087.63 2087.63 2071.96 2071.96 2056.33 2056.33 2040.72 2040.72 2025.11 2025.11 2009.48 2009.48 1993.81 1993.81 1978.11 1978.11 1962.35 1962.35 1946.53 1946.53 1930.65 1930.65 1914.68 1914.68 1898.64 1898.64 1882.51 1882.51 1866.29 1866.29 1849.98 1849.98 1833.58 1833.58 1817.09 1817.09 1800.5 1800.5 1783.82 1783.82 1767.05 1767.05 1750.18 1750.18 1733.22 1733.22 1716.17 1716.17 1699.03 1699.03 1681.81 1681.81 1664.5 1664.5 1647.11 1647.11 1629.65 1629.65 1612.1 1612.1 1594.49 1594.49 1576.8 1576.8 1559.05 1559.05 1541.23 1541.23 1523.36 1523.36 1505.43 1505.43 1487.44 1487.44 1469.41 1469.41 1451.33 1451.33 1433.21 1433.21 1415.05 1415.05 1396.86 1396.86 1378.63 1378.63 1360.38 1360.38 1342.1 1342.1 1323.81 1323.81 1305.49 1305.49 1287.17 1287.17 1268.83 1268.83 1250.49 1250.49 1232.15 1232.15 1213.8 1213.8 1195.46 1195.46 1177.13 1177.13 1158.81 1158.81 1140.51 1140.51 1122.22 1122.22 1103.95 1103.95 1085.71 1085.71 1067.49 1067.49 1049.3 1049.3 1031.14 1031.14 1013.02 1013.02 994.943 994.943 976.903 976.903 958.907 958.907 940.958 940.958 923.058 923.058 905.209 905.209 887.415 887.415 869.678 869.678 852 852 834.384 834.384 816.832 816.832 799.345 799.345 781.927 781.927 764.58 764.58 747.305 747.305 730.105 730.105 712.981 712.981 695.936 695.936 678.971 678.971 662.088 662.088 645.289 645.289 628.576 628.576 611.95 611.95 595.413 595.413 578.967 578.967 562.613 562.613 546.352 546.352 530.186 530.186 514.117 514.117 498.145 498.145 482.273 482.273 466.5 466.5 450.829 450.829 435.261 435.261 419.796 419.796 404.437 404.437 389.183 389.183 374.036 374.036 358.996 358.996 344.066 344.066 329.245 329.245 314.534 314.534 299.935 299.935 285.448 285.448 271.073 271.073 256.812 256.812 242.665 242.665 228.633 228.633 214.716 214.716 200.915 200.915 187.23 187.23 173.662 173.662 160.212 160.212 146.879 146.879 133.665 133.665 120.569 120.569 107.592 107.592 94.7344 94.7344 81.9962 81.9962 69.3777 69.3777 56.8792 56.8792 44.5008 44.5008 32.2428 32.2428 20.1054 20.1054 8.08854 8.08854 -3.80754 -3.80754 -15.5828 -15.5828 -27.2372 -27.2372 -38.7707 -38.7707 -50.1833 -50.1833 -61.4749 -61.4749 -72.6457 -72.6457 -83.6957 -83.6957 -94.625 -94.625 -105.434 -105.434 -116.122 -116.122 -126.689 -126.689 -137.137 -137.137 -147.464 -147.464 -157.672 -157.672 -167.76 -167.76 -177.728 -177.728 -187.578 -187.578 -197.308 -197.308 -206.92 -206.92 -216.413 -216.413 -225.789 -225.789 -235.046 -235.046 -244.187 -244.187 -253.21 -253.21 -262.116 -262.116 -270.907 -270.907 -279.581 -279.581 -288.14 -288.14 -296.583 -296.583 -304.912 -304.912 -313.127 -313.127 -321.228 -321.228 -329.216 -329.216 -337.091 -337.091 -344.854 -344.854 -352.504 -352.504 -360.044 -360.044 -367.472 -367.472 -374.79 -374.79 -381.999 -381.999 -389.098 -389.098 -396.088 -396.088 -402.97 -402.97 -409.745 -409.745 -416.413 -416.413 -422.974 -422.974 -429.429 -429.429 -435.78 -435.78 -442.025 -442.025 -448.166 -448.166 -454.204 -454.204 -460.14 -460.14 -465.973 -465.973 -471.704 -471.704 -477.335 -477.335 -482.865 -482.865 -488.295 -488.295 -493.627 -493.627 -498.86 -498.86 -503.996 -503.996 -509.034 -509.034 -513.976 -513.976 -518.823 -518.823 -523.574 -523.574 -528.231 -528.231 -532.795 -532.795 -537.265 -537.265 -541.643 -541.643 -545.93 -545.93 -550.126 -550.126 -554.231 -554.231 -558.247 -558.247 -562.174 -562.174 -566.013 -566.013 -569.764 -569.764 -573.429 -573.429 -577.008 -577.008 -580.501 -580.501 -583.91 -583.91 -587.235 -587.235 -590.476 -590.476 -593.635 -593.635 -596.713 -596.713 -599.709 -599.709 -602.625 -602.625 -605.461 -605.461 -608.218 -608.218 -610.897 -610.897 -613.498 -613.498 -616.022 -616.022 -618.471 -618.471 -620.844 -620.844 -623.142 -623.142 -625.366 -625.366 -627.517 -627.517 -629.595 -629.595 -631.601 -631.601 -633.536 -633.536 -635.4 -635.4 -637.195 -637.195 -638.921 -638.921 -640.578 -640.578 -642.167 -642.167 -643.689 -643.689 -645.145 -645.145 -646.536 -646.536 -647.861 -647.861 -649.122 -649.122 -650.32 -650.32 -651.454 -651.454 -652.526 -652.526 -653.537 -653.537 -654.487 -654.487 -655.376 -655.376 -656.206 -656.206 -656.978 -656.978 -657.69 -657.69 -658.346 -658.346 -658.944 -658.944 -659.486 -659.486 -659.973 -659.973 -660.405 -660.405 -660.782 -660.782 -661.106 -661.106 -661.376 -661.376 -661.595 -661.595 -661.761 -661.761 -661.877 -661.877 -661.942 -661.942 -661.957 -661.957 -661.923 -661.923 -661.84 -661.84 -661.709 -661.709 -661.531 -661.531 -661.306 -661.306 -661.035 -661.035 -660.719 -660.719 -660.357 -660.357 -659.951 -659.951 -659.501 -659.501 -659.009 -659.009 -658.473 -658.473 -657.896 -657.896 -657.277 -657.277 -656.617 -656.617 -655.917 -655.917 -655.177 -655.177 -654.398 -654.398 -653.58 -653.58 -652.724 -652.724 -651.831 -651.831 -650.901 -650.901 -649.934 -649.934 -648.932 -648.932 -647.894 -647.894 -646.821 -646.821 -645.715 -645.715 -644.574 -644.574 -643.4 -643.4 -642.193 -642.193 -640.955 -640.955 -639.684 -639.684 -638.382 -638.382 -637.05 -637.05 -635.687 -635.687 -634.295 -634.295 -632.873 -632.873 -631.423 -631.423 -629.945 -629.945 -628.438 -628.438 -626.905 -626.905 -625.344 -625.344 -623.758 -623.758 -622.145 -622.145 -620.507 -620.507 -618.844 -618.844 -617.156 -617.156 -615.445 -615.445 -613.709 -613.709 -611.951 -611.951 -610.169 -610.169 -608.366 -608.366 -606.54 -606.54 -604.693 -604.693 -602.825 -602.825 -600.936 -600.936 -599.027 -599.027 -597.098 -597.098 -595.15 -595.15 -593.183 -593.183 -591.197 -591.197 -589.192 -589.192 -587.17 -587.17 -585.131 -585.131 -583.074 -583.074 -581.001 -581.001 -578.911 -578.911 -576.805 -576.805 -574.684 -574.684 -572.547 -572.547 -570.396 -570.396 -568.23 -568.23 -566.05 -566.05 -563.856 -563.856 -561.648 -561.648 -559.428 -559.428 -557.195 -557.195 -554.949 -554.949 -552.691 -552.691 -550.421 -550.421 -548.14 -548.14 -545.847 -545.847 -543.544 -543.544 -541.23 -541.23 -538.906 -538.906 -536.572 -536.572 -534.229 -534.229 -531.876 -531.876 -529.514 -529.514 -527.143 -527.143 -524.764 -524.764 -522.377 -522.377 -519.981 -519.981 -517.579 -517.579 -515.169 -515.169 -512.751 -512.751 -510.328 -510.328 -507.897 -507.897 -505.46 -505.46 -503.018 -503.018 -500.569 -500.569 -498.116 -498.116 -495.656 -495.656 -493.192 -493.192 -490.724 -490.724 -488.25 -488.25 -485.773 -485.773 -483.291 -483.291 -480.806 -480.806 -478.317 -478.317 -475.824 -475.824 -473.329 -473.329 -470.831 -470.831 -468.33 -468.33 -465.826 -465.826 -463.321 -463.321 -460.813 -460.813 -458.304 -458.304 -455.792 -455.792 -453.28 -453.28 -450.766 -450.766 -448.251 -448.251 -445.736 -445.736 -443.219 -443.219 -440.702 -440.702 -438.185 -438.185 -435.668 -435.668 -433.151 -433.151 -430.634 -430.634 -428.118 -428.118 -425.602 -425.602 -423.087 -423.087 -420.573 -420.573 -418.06 -418.06 -415.549 -415.549 -413.038 -413.038 -410.53 -410.53 -408.023 -408.023 -405.518 -405.518 -403.015 -403.015 -400.514 -400.514 -398.016 -398.016 -395.52 -395.52 -393.026 -393.026 -390.536 -390.536 -388.048 -388.048 -385.564 -385.564 -383.082 -383.082 -380.604 -380.604 -378.129 -378.129 -375.658 -375.658 -373.19 -373.19 -370.727 -370.727 -368.267 -368.267 -365.811 -365.811 -363.359 -363.359 -360.912 -360.912 -358.469 -358.469 -356.03 -356.03 -353.596 -353.596 -351.167 -351.167 -348.743 -348.743 -346.323 -346.323 -343.908 -343.908 -341.499 -341.499 -339.095 -339.095 -336.696 -336.696 -334.302 -334.302 -331.914 -331.914 -329.531 -329.531 -327.154 -327.154 -324.783 -324.783 -322.418 -322.418 -320.058 -320.058 -317.705 -317.705 -315.357 -315.357 -313.016 -313.016 -310.681 -310.681 -308.352 -308.352 -306.029 -306.029 -303.713 -303.713 -301.404 -301.404 -299.101 -299.101 -296.805 -296.805 -294.515 -294.515 -292.232 -292.232 -289.956 -289.956 -287.687 -287.687 -285.425 -285.425 -283.169 -283.169 -280.921 -280.921 -278.68 -278.68 -276.447 -276.447 -274.22 -274.22 -272.001 -272.001 -269.789 -269.789 -267.584 -267.584 -265.387 -265.387 -263.197 -263.197 -261.015 -261.015 -258.84 -258.84 -256.673 -256.673 -254.514 -254.514 -252.362 -252.362 -250.218 -250.218 -248.082 -248.082 -245.954 -245.954 -243.833 -243.833 -241.721 -241.721 -239.616 -239.616 -237.519 -237.519 -235.43 -235.43 -233.35 -233.35 -231.277 -231.277 -229.212 -229.212 -227.155 -227.155 -225.107 -225.107 -223.066 -223.066 -221.034 -221.034 -219.01 -219.01 -216.994 -216.994 -214.987 -214.987 -212.988 -212.988 -210.997 -210.997 -209.014 -209.014 -207.039 -207.039 -205.073 -205.073 -203.116 -203.116 -201.166 -201.166 -199.225 -199.225 -197.293 -197.293 -195.369 -195.369 -193.453 -193.453 -191.546 -191.546 -189.647 -189.647 -187.757 -187.757 -185.875 -185.875 -184.001 -184.001 -182.137 -182.137 -180.28 -180.28 -178.432 -178.432 -176.593 -176.593 -174.762 -174.762 -172.94 -172.94 -171.126 -171.126 -169.321 -169.321 -167.524 -167.524 -165.736 -165.736 -163.957 -163.957 -162.186 -162.186 -160.423 -160.423 -158.669 -158.669 -156.924 -156.924 -155.187 -155.187 -153.459 -153.459 -151.739 -151.739 -150.028 -150.028 -148.326 -148.326 -146.632 -146.632 -144.946 -144.946 -143.269 -143.269 -141.601 -141.601 -139.941 -139.941 -138.29 -138.29 -136.647 -136.647 -135.013 -135.013 -133.387 -133.387 -131.77 -131.77 -130.161 -130.161 -128.561 -128.561 -126.969 -126.969 -125.386 -125.386 -123.811 -123.811 -122.245 -122.245 -120.687 -120.687 -119.137 -119.137 -117.596 -117.596 -116.064 -116.064 -114.54 -114.54 -113.024 -113.024 -111.517 -111.517 -110.018 -110.018 -108.527 -108.527 -107.045 -107.045 -105.571 -105.571 -104.106 -104.106 -102.649 -102.649 -101.2 -101.2 -99.7593 -99.7593 -98.3271 -98.3271 -96.9032 -96.9032 -95.4875 -95.4875 -94.0801 -94.0801 -92.681 -92.681 -91.29 -91.29 -89.9073 -89.9073 -88.5328 -88.5328 -87.1665 -87.1665 -85.8084 -85.8084 -84.4584 -84.4584 -83.1166 -83.1166 -81.7829 -81.7829 -80.4573 -80.4573 -79.1398 -79.1398 -77.8304 -77.8304 -76.529 -76.529 -75.2357 -75.2357 -73.9505 -73.9505 -72.6733 -72.6733 -71.4041 -71.4041 -70.1429 -70.1429 -68.8896 -68.8896 -67.6443 -67.6443 -66.407 -66.407 -65.1776 -65.1776 -63.9561 -63.9561 -62.7425 -62.7425 -61.5368 -61.5368 -60.3389 -60.3389 -59.1489 -59.1489 -57.9667 -57.9667 -56.7923 -56.7923 -55.6257 -55.6257 -54.4669 -54.4669 -53.3159 -53.3159 -52.1726 -52.1726 -51.0371 -51.0371 -49.9092 -49.9092 -48.7891 -48.7891 -47.6766 -47.6766 -46.5718 -46.5718 -45.4747 -45.4747 -44.3851 -44.3851 -43.3032 -43.3032 -42.2289 -42.2289 -41.1622 -41.1622 -40.103 -40.103 -39.0514 -39.0514 -38.0073 -38.0073 -36.9707 -36.9707 -35.9416 -35.9416 -34.92 -34.92 -33.9058 -33.9058 -32.8991 -32.8991 -31.8998 -31.8998 -30.908 -30.908 -29.9235 -29.9235 -28.9464 -28.9464 -27.9767 -27.9767 -27.0143 -27.0143 -26.0593 -26.0593 -25.1115 -25.1115 -24.1711 -24.1711 -23.238 -23.238 -22.3121 -22.3121 -21.3935 -21.3935 -20.4821 -20.4821 -19.5779 -19.5779 -18.681 -18.681 -17.7912 -17.7912 -16.9086 -16.9086 -16.0332 -16.0332 -15.1649 -15.1649 -14.3038 -14.3038 -13.4498 -13.4498 -12.6028 -12.6028 -11.763 -11.763 -10.9302 -10.9302 -10.1045 -10.1045 -9.28583 -9.28583 -8.47419 -8.47419 -7.66957 -7.66957 -6.87195 -6.87195 -6.08132 -6.08132 -5.29766 -5.29766 -4.52097 -4.52097 -3.75122 -3.75122 -2.98841 -2.98841 -2.23252 -2.23252 -1.48353 -1.48353 -0.741444 -0.741444 -0.00623834 -0.00623834 0.722099 0.722099 1.44358 1.44358 2.15822 2.15822 2.86603 2.86603 3.56702 3.56702 4.2612 4.2612 4.9486 4.9486 5.62922 5.62922 6.30307 6.30307 6.97016 6.97016 7.63052 7.63052 8.28415 8.28415 8.93107 8.93107 9.57129 9.57129 10.2048 10.2048 10.8317 10.8317 11.4519 11.4519 12.0654 12.0654 12.6724 12.6724 13.2727 13.2727 13.8664 13.8664 14.4535 14.4535 15.0341 15.0341 15.6081 15.6081 16.1755 16.1755 16.7365 16.7365 17.2909 17.2909 17.8389 17.8389 18.3803 18.3803 18.9154 18.9154 19.4439 19.4439 19.9661 19.9661 20.4819 20.4819 20.9913 20.9913 21.4944 21.4944 21.9911 21.9911 22.4815 22.4815 22.9656 22.9656 23.4435 23.4435 23.9151 23.9151 24.3804 24.3804 24.8396 24.8396 25.2926 25.2926 25.7395 25.7395 26.1803 26.1803 26.6149 26.6149 27.0435 27.0435 27.466 27.466 27.8825 27.8825 28.293 28.293 28.6976 28.6976 29.0962 29.0962 29.4889 29.4889 29.8758 29.8758 30.2567 30.2567 30.6319 30.6319 31.0012 31.0012 31.3648 31.3648 31.7226 31.7226 32.0748 32.0748 32.4212 32.4212 32.762 32.762 33.0971 33.0971 33.4266 33.4266 33.7505 33.7505 34.0688 34.0688 34.3817 34.3817 34.6889 34.6889 34.9907 34.9907 35.287 35.287 35.5779 35.5779 35.8633 35.8633 36.1433 36.1433 36.4178 36.4178 36.687 36.687 36.9508 36.9508 37.2093 37.2093 37.4623 37.4623 37.7101 37.7101 37.9525 37.9525 38.1895 38.1895 38.4213 38.4213 38.6477 38.6477 38.8688 38.8688 39.0845 39.0845 39.295 39.295 39.5001 39.5001 39.6999 39.6999 39.8944 39.8944 40.0835 40.0835 40.2673 40.2673 40.4458 40.4458 40.6189 40.6189 40.7866 40.7866 40.9489 40.9489 41.1059 41.1059 41.2574 41.2574 41.4035 41.4035 41.5442 41.5442 41.6794 41.6794 41.8092 41.8092 41.9335 41.9335 42.0523 42.0523 42.1656 42.1656 42.2734 42.2734 42.3756 42.3756 42.4723 42.4723 42.5634 42.5634 42.6489 42.6489 42.7288 42.7288 42.8031 42.8031 42.8718 42.8718 42.9349 42.9349 42.9923 42.9923 43.0441 43.0441 43.0902 43.0902 43.1307 43.1307 43.1655 43.1655 43.1947 43.1947 43.2182 43.2182 43.236 43.236 43.2482 43.2482 43.2547 43.2547 43.2556 43.2556 43.2509 43.2509 43.2405 43.2405 43.2246 43.2246 43.203 43.203 43.1759 43.1759 43.1433 43.1433 43.1051 43.1051 43.0615 43.0615 43.0124 43.0124 42.9579 42.9579 42.8979 42.8979 42.8326 42.8326 42.762 42.762 42.6861 42.6861 42.605 42.605 42.5186 42.5186 42.4271 42.4271 42.3305 42.3305 42.2289 42.2289 42.1222 42.1222 42.0107 42.0107 41.8942 41.8942 41.7729 41.7729 41.6468 41.6468 41.516 41.516 41.3805 41.3805 41.2404 41.2404 41.0958 41.0958 40.9468 40.9468 40.7934 40.7934 40.6356 40.6356 40.4735 40.4735 40.3073 40.3073 40.1369 40.1369 39.9625 39.9625 39.784 39.784 39.6017 39.6017 39.4155 39.4155 39.2255 39.2255 39.0318 39.0318 38.8345 38.8345 38.6336 38.6336 38.4293 38.4293 38.2214 38.2214 38.0103 38.0103 37.7958 37.7958 37.5782 37.5782 37.3574 37.3574 37.1335 37.1335 36.9066 36.9066 36.6768 36.6768 36.4442 36.4442 36.2087 36.2087 35.9705 35.9705 35.7297 35.7297 35.4863 35.4863 35.2403 35.2403 34.992 34.992 34.7412 34.7412 34.4882 34.4882 34.2329 34.2329 33.9754 33.9754 33.7158 33.7158 33.4542 33.4542 33.1906 33.1906 32.9251 32.9251 32.6578 32.6578 32.3888 32.3888 32.118 32.118 31.8456 31.8456 31.5717 31.5717 31.2962 31.2962 31.0194 31.0194 30.7412 30.7412 30.4618 30.4618 30.1811 30.1811 29.8993 29.8993 29.6164 29.6164 29.3326 29.3326 29.0478 29.0478 28.7622 28.7622 28.4759 28.4759 28.1888 28.1888 27.9012 27.9012 27.613 27.613 27.3243 27.3243 27.0353 27.0353 26.746 26.746 26.4565 26.4565 26.1668 26.1668 25.8771 25.8771 25.5874 25.5874 25.2979 25.2979 25.0086 25.0086 24.7195 24.7195 24.4309 24.4309 24.1427 24.1427 23.8551 23.8551 23.5682 23.5682 23.282 23.282 22.9967 22.9967 22.7123 22.7123 22.429 22.429 22.1469 22.1469 21.866 21.866 21.5864 21.5864 21.3083 21.3083 21.0318 21.0318 20.757 20.757 20.4839 20.4839 20.2128 20.2128 19.9436 19.9436 19.6766 19.6766 19.4118 19.4118 19.1494 19.1494 18.8894 18.8894 18.6321 18.6321 18.3774 18.3774 18.1256 18.1256 17.8767 17.8767 17.631 17.631 17.3884 17.3884 17.1492 17.1492 16.9135 16.9135 16.6814 16.6814 16.4531 16.4531 16.2286 16.2286 16.0081 16.0081 15.7918 15.7918 15.5799 15.5799 15.3723 15.3723 15.1694 15.1694 14.9712 14.9712 14.7778 14.7778 14.5895 14.5895 14.4064 14.4064 14.2287 14.2287 14.0564 14.0564 13.8898 13.8898 13.729 13.729 13.5742 13.5742 13.4255 13.4255 13.2831 13.2831 13.1472 13.1472 13.0179 13.0179 12.8954 12.8954 12.7799 12.7799 12.6715 12.6715 12.5705 12.5705 12.4769 12.4769 12.391 12.391 12.313 12.313 12.243 12.243 12.1813 12.1813 12.1279 12.1279 12.0832 12.0832 12.0472 12.0472 12.0202 12.0202 12.0024 12.0024 11.9939 11.9939 11.9951 11.9951 12.0059 12.0059 12.0268 12.0268 12.0578 12.0578 12.0991 12.0991 12.1511 12.1511 12.2138 12.2138 12.2875 12.2875 12.3725 12.3725 12.4688 12.4688 12.5768 12.5768 12.6967 12.6967 12.8286 12.8286 12.9729 12.9729 13.1297 13.1297 13.2992 13.2992 13.4817 13.4817 13.6774 13.6774 13.8865 13.8865 14.1094 14.1094 14.3461 14.3461 14.597 14.597 14.8623 14.8623 15.1422 15.1422 15.4371 15.4371 15.747 15.747 16.0723 16.0723 16.4132 16.4132 16.7701 16.7701 17.143 17.143 17.5324 17.5324 17.9383 17.9383 18.3613 18.3613 18.8013 18.8013 19.2589 19.2589 19.7341 19.7341 20.2273 20.2273 20.7387 20.7387 21.2687 21.2687 21.8175 21.8175 22.3853 22.3853 22.9725 22.9725 23.5793 23.5793 24.2061 24.2061 24.853 24.853 25.5205 25.5205 26.2087 26.2087 26.9181 26.9181 27.6487 27.6487 28.4011 28.4011 29.1754 29.1754 29.972 29.972 30.7912 30.7912 31.6332 31.6332 32.4984 32.4984 33.3871 33.3871 34.2996 34.2996 35.2362 35.2362 36.1973 36.1973 37.1831 37.1831 38.1939 38.1939 39.2302 39.2302 40.2921 40.2921 41.3801 41.3801 42.4945 42.4945 43.6355 43.6355 44.8036 44.8036 45.9991 45.9991 47.2222 47.2222 48.4734 
SCALARS solution_1 double 1
LOOKUP_TABLE default