# vtk DataFile Version 3.0
#This file was generated by the deal.II library on 2020/9/1 at 15:08:00
ASCII
DATASET UNSTRUCTURED_GRID

POINTS 2048 double
1.5 0 0
1.59619 0 0
1.59619 0 0
1.69238 0 0
1.69238 0 0
1.78857 0 0
1.78857 0 0
1.88477 0 0
1.88477 0 0
1.98096 0 0
1.98096 0 0
2.07715 0 0
2.07715 0 0
2.17334 0 0
2.17334 0 0
2.26953 0 0
2.26953 0 0
2.36572 0 0
2.36572 0 0
2.46191 0 0
2.46191 0 0
2.55811 0 0
2.55811 0 0
2.6543 0 0
2.6543 0 0
2.75049 0 0
2.75049 0 0
2.84668 0 0
2.84668 0 0
2.94287 0 0
2.94287 0 0
3.03906 0 0
3.03906 0 0
3.13525 0 0
3.13525 0 0
3.23145 0 0
3.23145 0 0
3.32764 0 0
3.32764 0 0
3.42383 0 0
3.42383 0 0
3.52002 0 0
3.52002 0 0
3.61621 0 0
3.61621 0 0
3.7124 0 0
3.7124 0 0
3.80859 0 0
3.80859 0 0
3.90479 0 0
3.90479 0 0
4.00098 0 0
4.00098 0 0
4.09717 0 0
4.09717 0 0
4.19336 0 0
4.19336 0 0
4.28955 0 0
4.28955 0 0
4.38574 0 0
4.38574 0 0
4.48193 0 0
4.48193 0 0
4.57812 0 0
4.57812 0 0
4.67432 0 0
4.67432 0 0
4.77051 0 0
4.77051 0 0
4.8667 0 0
4.8667 0 0
4.96289 0 0
4.96289 0 0
5.05908 0 0
5.05908 0 0
5.15527 0 0
5.15527 0 0
5.25146 0 0
5.25146 0 0
5.34766 0 0
5.34766 0 0
5.44385 0 0
5.44385 0 0
5.54004 0 0
5.54004 0 0
5.63623 0 0
5.63623 0 0
5.73242 0 0
5.73242 0 0
5.82861 0 0
5.82861 0 0
5.9248 0 0
5.9248 0 0
6.021 0 0
6.021 0 0
6.11719 0 0
6.11719 0 0
6.21338 0 0
6.21338 0 0
6.30957 0 0
6.30957 0 0
6.40576 0 0
6.40576 0 0
6.50195 0 0
6.50195 0 0
6.59814 0 0
6.59814 0 0
6.69434 0 0
6.69434 0 0
6.79053 0 0
6.79053 0 0
6.88672 0 0
6.88672 0 0
6.98291 0 0
6.98291 0 0
7.0791 0 0
7.0791 0 0
7.17529 0 0
7.17529 0 0
7.27148 0 0
7.27148 0 0
7.36768 0 0
7.36768 0 0
7.46387 0 0
7.46387 0 0
7.56006 0 0
7.56006 0 0
7.65625 0 0
7.65625 0 0
7.75244 0 0
7.75244 0 0
7.84863 0 0
7.84863 0 0
7.94482 0 0
7.94482 0 0
8.04102 0 0
8.04102 0 0
8.13721 0 0
8.13721 0 0
8.2334 0 0
8.2334 0 0
8.32959 0 0
8.32959 0 0
8.42578 0 0
8.42578 0 0
8.52197 0 0
8.52197 0 0
8.61816 0 0
8.61816 0 0
8.71436 0 0
8.71436 0 0
8.81055 0 0
8.81055 0 0
8.90674 0 0
8.90674 0 0
9.00293 0 0
9.00293 0 0
9.09912 0 0
9.09912 0 0
9.19531 0 0
9.19531 0 0
9.2915 0 0
9.2915 0 0
9.3877 0 0
9.3877 0 0
9.48389 0 0
9.48389 0 0
9.58008 0 0
9.58008 0 0
9.67627 0 0
9.67627 0 0
9.77246 0 0
9.77246 0 0
9.86865 0 0
9.86865 0 0
9.96484 0 0
9.96484 0 0
10.061 0 0
10.061 0 0
10.1572 0 0
10.1572 0 0
10.2534 0 0
10.2534 0 0
10.3496 0 0
10.3496 0 0
10.4458 0 0
10.4458 0 0
10.542 0 0
10.542 0 0
10.6382 0 0
10.6382 0 0
10.7344 0 0
10.7344 0 0
10.8306 0 0
10.8306 0 0
10.9268 0 0
10.9268 0 0
11.0229 0 0
11.0229 0 0
11.1191 0 0
11.1191 0 0
11.2153 0 0
11.2153 0 0
11.3115 0 0
11.3115 0 0
11.4077 0 0
11.4077 0 0
11.5039 0 0
11.5039 0 0
11.6001 0 0
11.6001 0 0
11.6963 0 0
11.6963 0 0
11.7925 0 0
11.7925 0 0
11.8887 0 0
11.8887 0 0
11.9849 0 0
11.9849 0 0
12.0811 0 0
12.0811 0 0
12.1772 0 0
12.1772 0 0
12.2734 0 0
12.2734 0 0
12.3696 0 0
12.3696 0 0
12.4658 0 0
12.4658 0 0
12.562 0 0
12.562 0 0
12.6582 0 0
12.6582 0 0
12.7544 0 0
12.7544 0 0
12.8506 0 0
12.8506 0 0
12.9468 0 0
12.9468 0 0
13.043 0 0
13.043 0 0
13.1392 0 0
13.1392 0 0
13.2354 0 0
13.2354 0 0
13.3315 0 0
13.3315 0 0
13.4277 0 0
13.4277 0 0
13.5239 0 0
13.5239 0 0
13.6201 0 0
13.6201 0 0
13.7163 0 0
13.7163 0 0
13.8125 0 0
13.8125 0 0
13.9087 0 0
13.9087 0 0
14.0049 0 0
14.0049 0 0
14.1011 0 0
14.1011 0 0
14.1973 0 0
14.1973 0 0
14.2935 0 0
14.2935 0 0
14.3896 0 0
14.3896 0 0
14.4858 0 0
14.4858 0 0
14.582 0 0
14.582 0 0
14.6782 0 0
14.6782 0 0
14.7744 0 0
14.7744 0 0
14.8706 0 0
14.8706 0 0
14.9668 0 0
14.9668 0 0
15.063 0 0
15.063 0 0
15.1592 0 0
15.1592 0 0
15.2554 0 0
15.2554 0 0
15.3516 0 0
15.3516 0 0
15.4478 0 0
15.4478 0 0
15.5439 0 0
15.5439 0 0
15.6401 0 0
15.6401 0 0
15.7363 0 0
15.7363 0 0
15.8325 0 0
15.8325 0 0
15.9287 0 0
15.9287 0 0
16.0249 0 0
16.0249 0 0
16.1211 0 0
16.1211 0 0
16.2173 0 0
16.2173 0 0
16.3135 0 0
16.3135 0 0
16.4097 0 0
16.4097 0 0
16.5059 0 0
16.5059 0 0
16.6021 0 0
16.6021 0 0
16.6982 0 0
16.6982 0 0
16.7944 0 0
16.7944 0 0
16.8906 0 0
16.8906 0 0
16.9868 0 0
16.9868 0 0
17.083 0 0
17.083 0 0
17.1792 0 0
17.1792 0 0
17.2754 0 0
17.2754 0 0
17.3716 0 0
17.3716 0 0
17.4678 0 0
17.4678 0 0
17.564 0 0
17.564 0 0
17.6602 0 0
17.6602 0 0
17.7563 0 0
17.7563 0 0
17.8525 0 0
17.8525 0 0
17.9487 0 0
17.9487 0 0
18.0449 0 0
18.0449 0 0
18.1411 0 0
18.1411 0 0
18.2373 0 0
18.2373 0 0
18.3335 0 0
18.3335 0 0
18.4297 0 0
18.4297 0 0
18.5259 0 0
18.5259 0 0
18.6221 0 0
18.6221 0 0
18.7183 0 0
18.7183 0 0
18.8145 0 0
18.8145 0 0
18.9106 0 0
18.9106 0 0
19.0068 0 0
19.0068 0 0
19.103 0 0
19.103 0 0
19.1992 0 0
19.1992 0 0
19.2954 0 0
19.2954 0 0
19.3916 0 0
19.3916 0 0
19.4878 0 0
19.4878 0 0
19.584 0 0
19.584 0 0
19.6802 0 0
19.6802 0 0
19.7764 0 0
19.7764 0 0
19.8726 0 0
19.8726 0 0
19.9688 0 0
19.9688 0 0
20.0649 0 0
20.0649 0 0
20.1611 0 0
20.1611 0 0
20.2573 0 0
20.2573 0 0
20.3535 0 0
20.3535 0 0
20.4497 0 0
20.4497 0 0
20.5459 0 0
20.5459 0 0
20.6421 0 0
20.6421 0 0
20.7383 0 0
20.7383 0 0
20.8345 0 0
20.8345 0 0
20.9307 0 0
20.9307 0 0
21.0269 0 0
21.0269 0 0
21.123 0 0
21.123 0 0
21.2192 0 0
21.2192 0 0
21.3154 0 0
21.3154 0 0
21.4116 0 0
21.4116 0 0
21.5078 0 0
21.5078 0 0
21.604 0 0
21.604 0 0
21.7002 0 0
21.7002 0 0
21.7964 0 0
21.7964 0 0
21.8926 0 0
21.8926 0 0
21.9888 0 0
21.9888 0 0
22.085 0 0
22.085 0 0
22.1812 0 0
22.1812 0 0
22.2773 0 0
22.2773 0 0
22.3735 0 0
22.3735 0 0
22.4697 0 0
22.4697 0 0
22.5659 0 0
22.5659 0 0
22.6621 0 0
22.6621 0 0
22.7583 0 0
22.7583 0 0
22.8545 0 0
22.8545 0 0
22.9507 0 0
22.9507 0 0
23.0469 0 0
23.0469 0 0
23.1431 0 0
23.1431 0 0
23.2393 0 0
23.2393 0 0
23.3354 0 0
23.3354 0 0
23.4316 0 0
23.4316 0 0
23.5278 0 0
23.5278 0 0
23.624 0 0
23.624 0 0
23.7202 0 0
23.7202 0 0
23.8164 0 0
23.8164 0 0
23.9126 0 0
23.9126 0 0
24.0088 0 0
24.0088 0 0
24.105 0 0
24.105 0 0
24.2012 0 0
24.2012 0 0
24.2974 0 0
24.2974 0 0
24.3936 0 0
24.3936 0 0
24.4897 0 0
24.4897 0 0
24.5859 0 0
24.5859 0 0
24.6821 0 0
24.6821 0 0
24.7783 0 0
24.7783 0 0
24.8745 0 0
24.8745 0 0
24.9707 0 0
24.9707 0 0
25.0669 0 0
25.0669 0 0
25.1631 0 0
25.1631 0 0
25.2593 0 0
25.2593 0 0
25.3555 0 0
25.3555 0 0
25.4517 0 0
25.4517 0 0
25.5479 0 0
25.5479 0 0
25.644 0 0
25.644 0 0
25.7402 0 0
25.7402 0 0
25.8364 0 0
25.8364 0 0
25.9326 0 0
25.9326 0 0
26.0288 0 0
26.0288 0 0
26.125 0 0
26.125 0 0
26.2212 0 0
26.2212 0 0
26.3174 0 0
26.3174 0 0
26.4136 0 0
26.4136 0 0
26.5098 0 0
26.5098 0 0
26.606 0 0
26.606 0 0
26.7021 0 0
26.7021 0 0
26.7983 0 0
26.7983 0 0
26.8945 0 0
26.8945 0 0
26.9907 0 0
26.9907 0 0
27.0869 0 0
27.0869 0 0
27.1831 0 0
27.1831 0 0
27.2793 0 0
27.2793 0 0
27.3755 0 0
27.3755 0 0
27.4717 0 0
27.4717 0 0
27.5679 0 0
27.5679 0 0
27.6641 0 0
27.6641 0 0
27.7603 0 0
27.7603 0 0
27.8564 0 0
27.8564 0 0
27.9526 0 0
27.9526 0 0
28.0488 0 0
28.0488 0 0
28.145 0 0
28.145 0 0
28.2412 0 0
28.2412 0 0
28.3374 0 0
28.3374 0 0
28.4336 0 0
28.4336 0 0
28.5298 0 0
28.5298 0 0
28.626 0 0
28.626 0 0
28.7222 0 0
28.7222 0 0
28.8184 0 0
28.8184 0 0
28.9146 0 0
28.9146 0 0
29.0107 0 0
29.0107 0 0
29.1069 0 0
29.1069 0 0
29.2031 0 0
29.2031 0 0
29.2993 0 0
29.2993 0 0
29.3955 0 0
29.3955 0 0
29.4917 0 0
29.4917 0 0
29.5879 0 0
29.5879 0 0
29.6841 0 0
29.6841 0 0
29.7803 0 0
29.7803 0 0
29.8765 0 0
29.8765 0 0
29.9727 0 0
29.9727 0 0
30.0688 0 0
30.0688 0 0
30.165 0 0
30.165 0 0
30.2612 0 0
30.2612 0 0
30.3574 0 0
30.3574 0 0
30.4536 0 0
30.4536 0 0
30.5498 0 0
30.5498 0 0
30.646 0 0
30.646 0 0
30.7422 0 0
30.7422 0 0
30.8384 0 0
30.8384 0 0
30.9346 0 0
30.9346 0 0
31.0308 0 0
31.0308 0 0
31.127 0 0
31.127 0 0
31.2231 0 0
31.2231 0 0
31.3193 0 0
31.3193 0 0
31.4155 0 0
31.4155 0 0
31.5117 0 0
31.5117 0 0
31.6079 0 0
31.6079 0 0
31.7041 0 0
31.7041 0 0
31.8003 0 0
31.8003 0 0
31.8965 0 0
31.8965 0 0
31.9927 0 0
31.9927 0 0
32.0889 0 0
32.0889 0 0
32.1851 0 0
32.1851 0 0
32.2812 0 0
32.2812 0 0
32.3774 0 0
32.3774 0 0
32.4736 0 0
32.4736 0 0
32.5698 0 0
32.5698 0 0
32.666 0 0
32.666 0 0
32.7622 0 0
32.7622 0 0
32.8584 0 0
32.8584 0 0
32.9546 0 0
32.9546 0 0
33.0508 0 0
33.0508 0 0
33.147 0 0
33.147 0 0
33.2432 0 0
33.2432 0 0
33.3394 0 0
33.3394 0 0
33.4355 0 0
33.4355 0 0
33.5317 0 0
33.5317 0 0
33.6279 0 0
33.6279 0 0
33.7241 0 0
33.7241 0 0
33.8203 0 0
33.8203 0 0
33.9165 0 0
33.9165 0 0
34.0127 0 0
34.0127 0 0
34.1089 0 0
34.1089 0 0
34.2051 0 0
34.2051 0 0
34.3013 0 0
34.3013 0 0
34.3975 0 0
34.3975 0 0
34.4937 0 0
34.4937 0 0
34.5898 0 0
34.5898 0 0
34.686 0 0
34.686 0 0
34.7822 0 0
34.7822 0 0
34.8784 0 0
34.8784 0 0
34.9746 0 0
34.9746 0 0
35.0708 0 0
35.0708 0 0
35.167 0 0
35.167 0 0
35.2632 0 0
35.2632 0 0
35.3594 0 0
35.3594 0 0
35.4556 0 0
35.4556 0 0
35.5518 0 0
35.5518 0 0
35.6479 0 0
35.6479 0 0
35.7441 0 0
35.7441 0 0
35.8403 0 0
35.8403 0 0
35.9365 0 0
35.9365 0 0
36.0327 0 0
36.0327 0 0
36.1289 0 0
36.1289 0 0
36.2251 0 0
36.2251 0 0
36.3213 0 0
36.3213 0 0
36.4175 0 0
36.4175 0 0
36.5137 0 0
36.5137 0 0
36.6099 0 0
36.6099 0 0
36.7061 0 0
36.7061 0 0
36.8022 0 0
36.8022 0 0
36.8984 0 0
36.8984 0 0
36.9946 0 0
36.9946 0 0
37.0908 0 0
37.0908 0 0
37.187 0 0
37.187 0 0
37.2832 0 0
37.2832 0 0
37.3794 0 0
37.3794 0 0
37.4756 0 0
37.4756 0 0
37.5718 0 0
37.5718 0 0
37.668 0 0
37.668 0 0
37.7642 0 0
37.7642 0 0
37.8604 0 0
37.8604 0 0
37.9565 0 0
37.9565 0 0
38.0527 0 0
38.0527 0 0
38.1489 0 0
38.1489 0 0
38.2451 0 0
38.2451 0 0
38.3413 0 0
38.3413 0 0
38.4375 0 0
38.4375 0 0
38.5337 0 0
38.5337 0 0
38.6299 0 0
38.6299 0 0
38.7261 0 0
38.7261 0 0
38.8223 0 0
38.8223 0 0
38.9185 0 0
38.9185 0 0
39.0146 0 0
39.0146 0 0
39.1108 0 0
39.1108 0 0
39.207 0 0
39.207 0 0
39.3032 0 0
39.3032 0 0
39.3994 0 0
39.3994 0 0
39.4956 0 0
39.4956 0 0
39.5918 0 0
39.5918 0 0
39.688 0 0
39.688 0 0
39.7842 0 0
39.7842 0 0
39.8804 0 0
39.8804 0 0
39.9766 0 0
39.9766 0 0
40.0728 0 0
40.0728 0 0
40.1689 0 0
40.1689 0 0
40.2651 0 0
40.2651 0 0
40.3613 0 0
40.3613 0 0
40.4575 0 0
40.4575 0 0
40.5537 0 0
40.5537 0 0
40.6499 0 0
40.6499 0 0
40.7461 0 0
40.7461 0 0
40.8423 0 0
40.8423 0 0
40.9385 0 0
40.9385 0 0
41.0347 0 0
41.0347 0 0
41.1309 0 0
41.1309 0 0
41.2271 0 0
41.2271 0 0
[...]
POINT_DATA 2048
SCALARS solution_0 double 1
LOOKUP_TABLE default
1.03413e+11 1.02579e+11 1.02579e+11 1.02069e+11 1.02069e+11 1.01816e+11 1.01816e+11 1.01769e+11 1.01769e+11 1.01887e+11 1.01887e+11 1.02136e+11 1.02136e+11 1.0249e+11 1.0249e+11 1.02927e+11 1.02927e+11 1.03428e+11 1.03428e+11 1.03981e+11 1.03981e+11 1.04571e+11 1.04571e+11 1.05191e+11 1.05191e+11 1.0583e+11 1.0583e+11 1.06484e+11 1.06484e+11 1.07145e+11 1.07145e+11 1.07809e+11 1.07809e+11 1.08473e+11 1.08473e+11 1.09132e+11 1.09132e+11 1.09785e+11 1.09785e+11 1.10429e+11 1.10429e+11 1.11061e+11 1.11061e+11 1.11681e+11 1.11681e+11 1.12286e+11 1.12286e+11 1.12877e+11 1.12877e+11 1.13452e+11 1.13452e+11 1.14009e+11 1.14009e+11 1.1455e+11 1.1455e+11 1.15073e+11 1.15073e+11 1.15577e+11 1.15577e+11 1.16063e+11 1.16063e+11 1.16531e+11 1.16531e+11 1.16979e+11 1.16979e+11 1.17409e+11 1.17409e+11 1.1782e+11 1.1782e+11 1.18213e+11 1.18213e+11 1.18586e+11 1.18586e+11 1.18941e+11 1.18941e+11 1.19278e+11 1.19278e+11 1.19596e+11 1.19596e+11 1.19896e+11 1.19896e+11 1.20178e+11 1.20178e+11 1.20442e+11 1.20442e+11 1.20689e+11 1.20689e+11 1.20918e+11 1.20918e+11 1.2113e+11 1.2113e+11 1.21326e+11 1.21326e+11 1.21504e+11 1.21504e+11 1.21666e+11 1.21666e+11 1.21812e+11 1.21812e+11 1.21942e+11 1.21942e+11 1.22057e+11 1.22057e+11 1.22156e+11 1.22156e+11 1.2224e+11 1.2224e+11 1.22309e+11 1.22309e+11 1.22364e+11 1.22364e+11 1.22404e+11 1.22404e+11 1.2243e+11 1.2243e+11 1.22442e+11 1.22442e+11 1.22441e+11 1.22441e+11 1.22426e+11 1.22426e+11 1.22398e+11 1.22398e+11 1.22357e+11 1.22357e+11 1.22304e+11 1.22304e+11 1.22238e+11 1.22238e+11 1.22161e+11 1.22161e+11 1.22071e+11 1.22071e+11 1.2197e+11 1.2197e+11 1.21857e+11 1.21857e+11 1.21733e+11 1.21733e+11 1.21598e+11 1.21598e+11 1.21452e+11 1.21452e+11 1.21296e+11 1.21296e+11 1.2113e+11 1.2113e+11 1.20953e+11 1.20953e+11 1.20767e+11 1.20767e+11 1.2057e+11 1.2057e+11 1.20365e+11 1.20365e+11 1.2015e+11 1.2015e+11 1.19926e+11 1.19926e+11 1.19693e+11 1.19693e+11 1.19451e+11 1.19451e+11 1.19201e+11 1.19201e+11 1.18943e+11 1.18943e+11 1.18677e+11 1.18677e+11 1.18402e+11 1.18402e+11 1.1812e+11 1.1812e+11 1.1783e+11 1.1783e+11 1.17533e+11 1.17533e+11 1.17229e+11 1.17229e+11 1.16917e+11 1.16917e+11 1.16599e+11 1.16599e+11 1.16274e+11 1.16274e+11 1.15942e+11 1.15942e+11 1.15604e+11 1.15604e+11 1.15259e+11 1.15259e+11 1.14909e+11 1.14909e+11 1.14552e+11 1.14552e+11 1.1419e+11 1.1419e+11 1.13822e+11 1.13822e+11 1.13449e+11 1.13449e+11 1.1307e+11 1.1307e+11 1.12686e+11 1.12686e+11 1.12297e+11 1.12297e+11 1.11903e+11 1.11903e+11 1.11504e+11 1.11504e+11 1.111e+11 1.111e+11 1.10692e+11 1.10692e+11 1.10279e+11 1.10279e+11 1.09862e+11 1.09862e+11 1.09441e+11 1.09441e+11 1.09016e+11 1.09016e+11 1.08587e+11 1.08587e+11 1.08154e+11 1.08154e+11 1.07717e+11 1.07717e+11 1.07277e+11 1.07277e+11 1.06833e+11 1.06833e+11 1.06386e+11 1.06386e+11 1.05935e+11 1.05935e+11 1.05482e+11 1.05482e+11 1.05025e+11 1.05025e+11 1.04565e+11 1.04565e+11 1.04103e+11 1.04103e+11 1.03638e+11 1.03638e+11 1.0317e+11 1.0317e+11 1.02699e+11 1.02699e+11 1.02226e+11 1.02226e+11 1.01751e+11 1.01751e+11 1.01273e+11 1.01273e+11 1.00794e+11 1.00794e+11 1.00312e+11 1.00312e+11 9.98281e+10 9.98281e+10 9.93423e+10 9.93423e+10 9.88547e+10 9.88547e+10 9.83654e+10 9.83654e+10 9.78744e+10 9.78744e+10 9.73818e+10 9.73818e+10 9.68877e+10 9.68877e+10 9.63921e+10 9.63921e+10 9.58952e+10 9.58952e+10 9.53971e+10 9.53971e+10 9.48977e+10 9.48977e+10 9.43972e+10 9.43972e+10 9.38956e+10 9.38956e+10 9.33931e+10 9.33931e+10 9.28896e+10 9.28896e+10 9.23853e+10 9.23853e+10 9.18802e+10 9.18802e+10 9.13744e+10 9.13744e+10 9.08679e+10 9.08679e+10 9.03609e+10 9.03609e+10 8.98533e+10 8.98533e+10 8.93452e+10 8.93452e+10 8.88368e+10 8.88368e+10 8.8328e+10 8.8328e+10 8.78189e+10 8.78189e+10 8.73096e+10 8.73096e+10 8.68001e+10 8.68001e+10 8.62905e+10 8.62905e+10 8.57809e+10 8.57809e+10 8.52712e+10 8.52712e+10 8.47616e+10 8.47616e+10 8.4252e+10 8.4252e+10 8.37426e+10 8.37426e+10 8.32334e+10 8.32334e+10 8.27245e+10 8.27245e+10 8.22158e+10 8.22158e+10 8.17075e+10 8.17075e+10 8.11995e+10 8.11995e+10 8.0692e+10 8.0692e+10 8.01849e+10 8.01849e+10 7.96784e+10 7.96784e+10 7.91724e+10 7.91724e+10 7.8667e+10 7.8667e+10 7.81622e+10 7.81622e+10 7.76581e+10 7.76581e+10 7.71548e+10 7.71548e+10 7.66522e+10 7.66522e+10 7.61504e+10 7.61504e+10 7.56494e+10 7.56494e+10 7.51493e+10 7.51493e+10 7.465e+10 7.465e+10 7.41517e+10 7.41517e+10 7.36544e+10 7.36544e+10 7.31581e+10 7.31581e+10 7.26628e+10 7.26628e+10 7.21686e+10 7.21686e+10 7.16755e+10 7.16755e+10 7.11835e+10 7.11835e+10 7.06927e+10 7.06927e+10 7.02031e+10 7.02031e+10 6.97146e+10 6.97146e+10 6.92275e+10 6.92275e+10 6.87415e+10 6.87415e+10 6.82569e+10 6.82569e+10 6.77736e+10 6.77736e+10 6.72917e+10 6.72917e+10 6.68111e+10 6.68111e+10 6.63319e+10 6.63319e+10 6.58542e+10 6.58542e+10 6.53779e+10 6.53779e+10 6.4903e+10 6.4903e+10 6.44296e+10 6.44296e+10 6.39578e+10 6.39578e+10 6.34875e+10 6.34875e+10 6.30187e+10 6.30187e+10 6.25515e+10 6.25515e+10 6.20858e+10 6.20858e+10 6.16218e+10 6.16218e+10 6.11594e+10 6.11594e+10 6.06987e+10 6.06987e+10 6.02396e+10 6.02396e+10 5.97822e+10 5.97822e+10 5.93265e+10 5.93265e+10 5.88725e+10 5.88725e+10 5.84202e+10 5.84202e+10 5.79696e+10 5.79696e+10 5.75208e+10 5.75208e+10 5.70738e+10 5.70738e+10 5.66286e+10 5.66286e+10 5.61851e+10 5.61851e+10 5.57435e+10 5.57435e+10 5.53036e+10 5.53036e+10 5.48656e+10 5.48656e+10 5.44295e+10 5.44295e+10 5.39952e+10 5.39952e+10 5.35627e+10 5.35627e+10 5.31322e+10 5.31322e+10 5.27035e+10 5.27035e+10 5.22767e+10 5.22767e+10 5.18518e+10 5.18518e+10 5.14288e+10 5.14288e+10 5.10078e+10 5.10078e+10 5.05886e+10 5.05886e+10 5.01714e+10 5.01714e+10 4.97562e+10 4.97562e+10 4.93429e+10 4.93429e+10 4.89315e+10 4.89315e+10 4.85221e+10 4.85221e+10 4.81147e+10 4.81147e+10 4.77092e+10 4.77092e+10 4.73058e+10 4.73058e+10 4.69043e+10 4.69043e+10 4.65048e+10 4.65048e+10 4.61073e+10 4.61073e+10 4.57118e+10 4.57118e+10 4.53183e+10 4.53183e+10 4.49268e+10 4.49268e+10 4.45373e+10 4.45373e+10 4.41498e+10 4.41498e+10 4.37644e+10 4.37644e+10 4.33809e+10 4.33809e+10 4.29995e+10 4.29995e+10 4.26201e+10 4.26201e+10 4.22427e+10 4.22427e+10 4.18673e+10 4.18673e+10 4.1494e+10 4.1494e+10 4.11227e+10 4.11227e+10 4.07534e+10 4.07534e+10 4.03862e+10 4.03862e+10 4.0021e+10 4.0021e+10 3.96578e+10 3.96578e+10 3.92966e+10 3.92966e+10 3.89375e+10 3.89375e+10 3.85804e+10 3.85804e+10 3.82253e+10 3.82253e+10 3.78723e+10 3.78723e+10 3.75213e+10 3.75213e+10 3.71723e+10 3.71723e+10 3.68253e+10 3.68253e+10 3.64804e+10 3.64804e+10 3.61374e+10 3.61374e+10 3.57965e+10 3.57965e+10 3.54576e+10 3.54576e+10 3.51207e+10 3.51207e+10 3.47859e+10 3.47859e+10 3.4453e+10 3.4453e+10 3.41221e+10 3.41221e+10 3.37933e+10 3.37933e+10 3.34664e+10 3.34664e+10 3.31416e+10 3.31416e+10 3.28187e+10 3.28187e+10 3.24978e+10 3.24978e+10 3.21789e+10 3.21789e+10 3.1862e+10 3.1862e+10 3.1547e+10 3.1547e+10 3.12341e+10 3.12341e+10 3.0923e+10 3.0923e+10 3.0614e+10 3.0614e+10 3.03069e+10 3.03069e+10 3.00018e+10 3.00018e+10 2.96986e+10 2.96986e+10 2.93974e+10 2.93974e+10 2.90981e+10 2.90981e+10 2.88007e+10 2.88007e+10 2.85053e+10 2.85053e+10 2.82117e+10 2.82117e+10 2.79201e+10 2.79201e+10 2.76305e+10 2.76305e+10 2.73427e+10 2.73427e+10 2.70568e+10 2.70568e+10 2.67728e+10 2.67728e+10 2.64907e+10 2.64907e+10 2.62105e+10 2.62105e+10 2.59322e+10 2.59322e+10 2.56557e+10 2.56557e+10 2.53811e+10 2.53811e+10 2.51083e+10 2.51083e+10 2.48374e+10 2.48374e+10 2.45684e+10 2.45684e+10 2.43011e+10 2.43011e+10 2.40357e+10 2.40357e+10 2.37722e+10 2.37722e+10 2.35104e+10 2.35104e+10 2.32505e+10 2.32505e+10 2.29923e+10 2.29923e+10 2.2736e+10 2.2736e+10 2.24814e+10 2.24814e+10 2.22286e+10 2.22286e+10 2.19776e+10 2.19776e+10 2.17284e+10 2.17284e+10 2.14809e+10 2.14809e+10 2.12351e+10 2.12351e+10 2.09911e+10 2.09911e+10 2.07489e+10 2.07489e+10 2.05083e+10 2.05083e+10 2.02695e+10 2.02695e+10 2.00324e+10 2.00324e+10 1.9797e+10 1.9797e+10 1.95633e+10 1.95633e+10 1.93313e+10 1.93313e+10 1.9101e+10 1.9101e+10 1.88723e+10 1.88723e+10 1.86453e+10 1.86453e+10 1.842e+10 1.842e+10 1.81963e+10 1.81963e+10 1.79743e+10 1.79743e+10 1.77538e+10 1.77538e+10 1.75351e+10 1.75351e+10 1.73179e+10 1.73179e+10 1.71023e+10 1.71023e+10 1.68884e+10 1.68884e+10 1.6676e+10 1.6676e+10 1.64652e+10 1.64652e+10 1.6256e+10 1.6256e+10 1.60483e+10 1.60483e+10 1.58422e+10 1.58422e+10 1.56377e+10 1.56377e+10 1.54347e+10 1.54347e+10 1.52333e+10 1.52333e+10 1.50333e+10 1.50333e+10 1.48349e+10 1.48349e+10 1.4638e+10 1.4638e+10 1.44426e+10 1.44426e+10 1.42487e+10 1.42487e+10 1.40562e+10 1.40562e+10 1.38653e+10 1.38653e+10 1.36758e+10 1.36758e+10 1.34877e+10 1.34877e+10 1.33011e+10 1.33011e+10 1.3116e+10 1.3116e+10 1.29323e+10 1.29323e+10 1.275e+10 1.275e+10 1.25691e+10 1.25691e+10 1.23896e+10 1.23896e+10 1.22116e+10 1.22116e+10 1.20349e+10 1.20349e+10 1.18596e+10 1.18596e+10 1.16857e+10 1.16857e+10 1.15131e+10 1.15131e+10 1.13419e+10 1.13419e+10 1.11721e+10 1.11721e+10 1.10036e+10 1.10036e+10 1.08364e+10 1.08364e+10 1.06705e+10 1.06705e+10 1.0506e+10 1.0506e+10 1.03428e+10 1.03428e+10 1.01808e+10 1.01808e+10 1.00202e+10 1.00202e+10 9.86084e+09 9.86084e+09 9.70275e+09 9.70275e+09 9.54592e+09 9.54592e+09 9.39036e+09 9.39036e+09 9.23604e+09 9.23604e+09 9.08296e+09 9.08296e+09 8.93112e+09 8.93112e+09 8.7805e+09 8.7805e+09 8.63109e+09 8.63109e+09 8.4829e+09 8.4829e+09 8.3359e+09 8.3359e+09 8.19009e+09 8.19009e+09 8.04547e+09 8.04547e+09 7.90202e+09 7.90202e+09 7.75974e+09 7.75974e+09 7.61862e+09 7.61862e+09 7.47865e+09 7.47865e+09 7.33982e+09 7.33982e+09 7.20213e+09 7.20213e+09 7.06556e+09 7.06556e+09 6.93012e+09 6.93012e+09 6.79578e+09 6.79578e+09 6.66255e+09 6.66255e+09 6.53042e+09 6.53042e+09 6.39937e+09 6.39937e+09 6.26941e+09 6.26941e+09 6.14051e+09 6.14051e+09 6.01268e+09 6.01268e+09 5.88591e+09 5.88591e+09 5.76019e+09 5.76019e+09 5.63551e+09 5.63551e+09 5.51186e+09 5.51186e+09 5.38924e+09 5.38924e+09 5.26763e+09 5.26763e+09 5.14704e+09 5.14704e+09 5.02745e+09 5.02745e+09 4.90886e+09 4.90886e+09 4.79126e+09 4.79126e+09 4.67464e+09 4.67464e+09 4.55899e+09 4.55899e+09 4.44431e+09 4.44431e+09 4.33059e+09 4.33059e+09 4.21783e+09 4.21783e+09 4.106e+09 4.106e+09 3.99512e+09 3.99512e+09 3.88516e+09 3.88516e+09 3.77613e+09 3.77613e+09 3.66801e+09 3.66801e+09 3.56081e+09 3.56081e+09 3.4545e+09 3.4545e+09 3.34909e+09 3.34909e+09 3.24457e+09 3.24457e+09 3.14093e+09 3.14093e+09 3.03816e+09 3.03816e+09 2.93626e+09 2.93626e+09 2.83523e+09 2.83523e+09 2.73504e+09 2.73504e+09 2.6357e+09 2.6357e+09 2.5372e+09 2.5372e+09 2.43954e+09 2.43954e+09 2.3427e+09 2.3427e+09 2.24668e+09 2.24668e+09 2.15148e+09 2.15148e+09 2.05708e+09 2.05708e+09 1.96348e+09 1.96348e+09 1.87068e+09 1.87068e+09 1.77866e+09 1.77866e+09 1.68742e+09 1.68742e+09 1.59696e+09 1.59696e+09 1.50727e+09 1.50727e+09 1.41833e+09 1.41833e+09 1.33016e+09 1.33016e+09 1.24273e+09 1.24273e+09 1.15604e+09 1.15604e+09 1.07009e+09 1.07009e+09 9.84877e+08 9.84877e+08 9.00384e+08 9.00384e+08 8.1661e+08 8.1661e+08 7.33547e+08 7.33547e+08 6.51191e+08 6.51191e+08 5.69535e+08 5.69535e+08 4.88574e+08 4.88574e+08 4.08301e+08 4.08301e+08 3.28711e+08 3.28711e+08 2.49797e+08 2.49797e+08 1.71555e+08 1.71555e+08 9.39777e+07 9.39777e+07 1.70601e+07 1.70601e+07 -5.92038e+07 -5.92038e+07 -1.34819e+08 -1.34819e+08 -2.09793e+08 -2.09793e+08 -2.84129e+08 -2.84129e+08 -3.57833e+08 -3.57833e+08 -4.30912e+08 -4.30912e+08 -5.0337e+08 -5.0337e+08 -5.75214e+08 -5.75214e+08 -6.46448e+08 -6.46448e+08 -7.17077e+08 -7.17077e+08 -7.87108e+08 -7.87108e+08 -8.56545e+08 -8.56545e+08 -9.25393e+08 -9.25393e+08 -9.93659e+08 -9.93659e+08 -1.06135e+09 -1.06135e+09 -1.12846e+09 -1.12846e+09 -1.19501e+09 -1.19501e+09 -1.26099e+09 -1.26099e+09 -1.32642e+09 -1.32642e+09 -1.39129e+09 -1.39129e+09 -1.45562e+09 -1.45562e+09 -1.51941e+09 -1.51941e+09 -1.58265e+09 -1.58265e+09 -1.64537e+09 -1.64537e+09 -1.70755e+09 -1.70755e+09 -1.76922e+09 -1.76922e+09 -1.83036e+09 -1.83036e+09 -1.89099e+09 -1.89099e+09 -1.95112e+09 -1.95112e+09 -2.01073e+09 -2.01073e+09 -2.06985e+09 -2.06985e+09 -2.12848e+09 -2.12848e+09 -2.18661e+09 -2.18661e+09 -2.24426e+09 -2.24426e+09 -2.30142e+09 -2.30142e+09 -2.35811e+09 -2.35811e+09 -2.41433e+09 -2.41433e+09 -2.47008e+09 -2.47008e+09 -2.52537e+09 -2.52537e+09 -2.58019e+09 -2.58019e+09 -2.63456e+09 -2.63456e+09 -2.68848e+09 -2.68848e+09 -2.74196e+09 -2.74196e+09 -2.79499e+09 -2.79499e+09 -2.84758e+09 -2.84758e+09 -2.89974e+09 -2.89974e+09 -2.95147e+09 -2.95147e+09 -3.00278e+09 -3.00278e+09 -3.05366e+09 -3.05366e+09 -3.10413e+09 -3.10413e+09 -3.15418e+09 -3.15418e+09 -3.20382e+09 -3.20382e+09 -3.25306e+09 -3.25306e+09 -3.30189e+09 -3.30189e+09 -3.35033e+09 -3.35033e+09 -3.39837e+09 -3.39837e+09 -3.44602e+09 -3.44602e+09 -3.49329e+09 -3.49329e+09 -3.54017e+09 -3.54017e+09 -3.58667e+09 -3.58667e+09 -3.6328e+09 -3.6328e+09 -3.67856e+09 -3.67856e+09 -3.72395e+09 -3.72395e+09 -3.76897e+09 -3.76897e+09 -3.81363e+09 -3.81363e+09 -3.85794e+09 -3.85794e+09 -3.90189e+09 -3.90189e+09 -3.94549e+09 -3.94549e+09 -3.98875e+09 -3.98875e+09 -4.03166e+09 -4.03166e+09 -4.07423e+09 -4.07423e+09 -4.11646e+09 -4.11646e+09 -4.15836e+09 -4.15836e+09 -4.19993e+09 -4.19993e+09 -4.24118e+09 -4.24118e+09 -4.2821e+09 -4.2821e+09 -4.3227e+09 -4.3227e+09 -4.36298e+09 -4.36298e+09 -4.40295e+09 -4.40295e+09 -4.4426e+09 -4.4426e+09 -4.48195e+09 -4.48195e+09 -4.521e+09 -4.521e+09 -4.55974e+09 -4.55974e+09 -4.59819e+09 -4.59819e+09 -4.63634e+09 -4.63634e+09 -4.67419e+09 -4.67419e+09 -4.71176e+09 -4.71176e+09 -4.74904e+09 -4.74904e+09 -4.78604e+09 -4.78604e+09 -4.82275e+09 -4.82275e+09 -4.85919e+09 -4.85919e+09 -4.89535e+09 -4.89535e+09 -4.93124e+09 -4.93124e+09 -4.96686e+09 -4.96686e+09 -5.00222e+09 -5.00222e+09 -5.03731e+09 -5.03731e+09 -5.07213e+09 -5.07213e+09 -5.1067e+09 -5.1067e+09 -5.14102e+09 -5.14102e+09 -5.17508e+09 -5.17508e+09 -5.20888e+09 -5.20888e+09 -5.24244e+09 -5.24244e+09 -5.27576e+09 -5.27576e+09 -5.30883e+09 -5.30883e+09 -5.34166e+09 -5.34166e+09 -5.37425e+09 -5.37425e+09 -5.40661e+09 -5.40661e+09 -5.43873e+09 -5.43873e+09 -5.47062e+09 -5.47062e+09 -5.50229e+09 -5.50229e+09 -5.53372e+09 -5.53372e+09 -5.56494e+09 -5.56494e+09 -5.59593e+09 -5.59593e+09 -5.6267e+09 -5.6267e+09 -5.65726e+09 -5.65726e+09 -5.6876e+09 -5.6876e+09 -5.71773e+09 -5.71773e+09 -5.74764e+09 -5.74764e+09 -5.77735e+09 -5.77735e+09 -5.80686e+09 -5.80686e+09 -5.83616e+09 -5.83616e+09 -5.86526e+09 -5.86526e+09 -5.89416e+09 -5.89416e+09 -5.92286e+09 -5.92286e+09 -5.95136e+09 -5.95136e+09 -5.97968e+09 -5.97968e+09 -6.0078e+09 -6.0078e+09 -6.03573e+09 -6.03573e+09 -6.06347e+09 -6.06347e+09 -6.09103e+09 -6.09103e+09 -6.11841e+09 -6.11841e+09 -6.1456e+09 -6.1456e+09 -6.17262e+09 -6.17262e+09 -6.19945e+09 -6.19945e+09 -6.22611e+09 -6.22611e+09 -6.2526e+09 -6.2526e+09 -6.27891e+09 -6.27891e+09 -6.30506e+09 -6.30506e+09 -6.33103e+09 -6.33103e+09 -6.35684e+09 -6.35684e+09 -6.38248e+09 -6.38248e+09 -6.40796e+09 -6.40796e+09 -6.43328e+09 -6.43328e+09 -6.45844e+09 -6.45844e+09 -6.48343e+09 -6.48343e+09 -6.50827e+09 -6.50827e+09 -6.53296e+09 -6.53296e+09 -6.55749e+09 -6.55749e+09 -6.58187e+09 -6.58187e+09 -6.6061e+09 -6.6061e+09 -6.63018e+09 -6.63018e+09 -6.65412e+09 -6.65412e+09 -6.67791e+09 -6.67791e+09 -6.70155e+09 -6.70155e+09 -6.72505e+09 -6.72505e+09 -6.74841e+09 -6.74841e+09 -6.77163e+09 -6.77163e+09 -6.79471e+09 -6.79471e+09 -6.81765e+09 -6.81765e+09 -6.84046e+09 -6.84046e+09 -6.86313e+09 -6.86313e+09 -6.88567e+09 -6.88567e+09 -6.90807e+09 -6.90807e+09 -6.93035e+09 -6.93035e+09 -6.9525e+09 -6.9525e+09 -6.97452e+09 -6.97452e+09 -6.99641e+09 -6.99641e+09 -7.01818e+09 -7.01818e+09 -7.03982e+09 -7.03982e+09 -7.06135e+09 -7.06135e+09 -7.08274e+09 -7.08274e+09 -7.10402e+09 -7.10402e+09 -7.12518e+09 -7.12518e+09 -7.14622e+09 -7.14622e+09 -7.16715e+09 -7.16715e+09 -7.18796e+09 -7.18796e+09 -7.20865e+09 -7.20865e+09 -7.22923e+09 -7.22923e+09 -7.2497e+09 -7.2497e+09 -7.27005e+09 -7.27005e+09 -7.2903e+09 -7.2903e+09 -7.31043e+09 -7.31043e+09 -7.33046e+09 -7.33046e+09 -7.35038e+09 -7.35038e+09 -7.37019e+09 -7.37019e+09 -7.3899e+09 -7.3899e+09 -7.4095e+09 -7.4095e+09 -7.429e+09 -7.429e+09 -7.44839e+09 -7.44839e+09 -7.46769e+09 -7.46769e+09 -7.48688e+09 -7.48688e+09 -7.50597e+09 -7.50597e+09 -7.52497e+09 -7.52497e+09 -7.54386e+09 -7.54386e+09 -7.56266e+09 -7.56266e+09 -7.58136e+09 -7.58136e+09 -7.59996e+09 -7.59996e+09 -7.61847e+09 -7.61847e+09 -7.63689e+09 -7.63689e+09 -7.65521e+09 -7.65521e+09 -7.67344e+09 -7.67344e+09 -7.69158e+09 -7.69158e+09 -7.70962e+09 -7.70962e+09 -7.72757e+09 -7.72757e+09 -7.74544e+09 -7.74544e+09 -7.76321e+09 -7.76321e+09 -7.7809e+09 -7.7809e+09 -7.7985e+09 -7.7985e+09 -7.81601e+09 -7.81601e+09 -7.83343e+09 -7.83343e+09 -7.85077e+09 -7.85077e+09 -7.86802e+09 -7.86802e+09 -7.88518e+09 -7.88518e+09 -7.90226e+09 -7.90226e+09 -7.91926e+09 -7.91926e+09 -7.93617e+09 -7.93617e+09 -7.953e+09 -7.953e+09 -7.96975e+09 -7.96975e+09 -7.98642e+09 -7.98642e+09 -8.003e+09 -8.003e+09 -8.01951e+09 -8.01951e+09 -8.03593e+09 -8.03593e+09 -8.05227e+09 -8.05227e+09 -8.06853e+09 -8.06853e+09 -8.08472e+09 -8.08472e+09 -8.10082e+09 -8.10082e+09 -8.11685e+09 -8.11685e+09 -8.1328e+09 -8.1328e+09 -8.14866e+09 -8.14866e+09 -8.16446e+09 -8.16446e+09 -8.18017e+09 -8.18017e+09 -8.19581e+09 -8.19581e+09 -8.21137e+09 -8.21137e+09 -8.22686e+09 -8.22686e+09 -8.24226e+09 -8.24226e+09 -8.2576e+09 -8.2576e+09 -8.27285e+09 -8.27285e+09 -8.28804e+09 -8.28804e+09 -8.30314e+09 -8.30314e+09 -8.31818e+09 -8.31818e+09 -8.33313e+09 -8.33313e+09 -8.34802e+09 -8.34802e+09 -8.36282e+09 -8.36282e+09 -8.37756e+09 -8.37756e+09 -8.39222e+09 -8.39222e+09 -8.4068e+09 -8.4068e+09 -8.42132e+09 -8.42132e+09 -8.43575e+09 -8.43575e+09 -8.45012e+09 -8.45012e+09 -8.46441e+09 -8.46441e+09 -8.47863e+09 -8.47863e+09 -8.49277e+09 -8.49277e+09 -8.50684e+09 -8.50684e+09 -8.52084e+09 -8.52084e+09 -8.53476e+09 -8.53476e+09 -8.54861e+09 -8.54861e+09 -8.56239e+09 -8.56239e+09 -8.57609e+09 -8.57609e+09 -8.58972e+09 -8.58972e+09 -8.60328e+09 -8.60328e+09 -8.61676e+09 -8.61676e+09 -8.63017e+09 -8.63017e+09 -8.6435e+09 -8.6435e+09 -8.65676e+09 -8.65676e+09 -8.66995e+09 -8.66995e+09 -8.68306e+09 -8.68306e+09 -8.6961e+09 -8.6961e+09 -8.70906e+09 -8.70906e+09 -8.72195e+09 -8.72195e+09 -8.73476e+09 -8.73476e+09 -8.7475e+09 -8.7475e+09 -8.76016e+09 -8.76016e+09 -8.77275e+09 -8.77275e+09 -8.78526e+09 -8.78526e+09 -8.79769e+09 -8.79769e+09 -8.81005e+09 -8.81005e+09 -8.82234e+09 -8.82234e+09 -8.83454e+09 -8.83454e+09 -8.84667e+09 -8.84667e+09 -8.85872e+09 -8.85872e+09 -8.87069e+09 -8.87069e+09 -8.88259e+09 -8.88259e+09 -8.8944e+09 -8.8944e+09 -8.90614e+09 -8.90614e+09 -8.91779e+09 -8.91779e+09 -8.92937e+09 -8.92937e+09 -8.94087e+09 -8.94087e+09 -8.95228e+09 -8.95228e+09 -8.96362e+09 -8.96362e+09 -8.97487e+09 -8.97487e+09 -8.98604e+09 -8.98604e+09 -8.99713e+09 -8.99713e+09 -9.00814e+09 -9.00814e+09 -9.01906e+09 -9.01906e+09 -9.0299e+09 -9.0299e+09 -9.04065e+09 -9.04065e+09 -9.05132e+09 -9.05132e+09 -9.0619e+09 -9.0619e+09 -9.0724e+09 -9.0724e+09 -9.0828e+09 -9.0828e+09 -9.09313e+09 -9.09313e+09 -9.10336e+09 -9.10336e+09 -9.1135e+09 -9.1135e+09 -9.12356e+09 -9.12356e+09 -9.13352e+09 -9.13352e+09 -9.1434e+09 -9.1434e+09 -9.15318e+09 -9.15318e+09 -9.16287e+09 -9.16287e+09 -9.17247e+09 -9.17247e+09 -9.18197e+09 -9.18197e+09 -9.19138e+09 -9.19138e+09 -9.2007e+09 -9.2007e+09 -9.20991e+09 -9.20991e+09 -9.21904e+09 -9.21904e+09 -9.22806e+09 -9.22806e+09 -9.23699e+09 -9.23699e+09 -9.24581e+09 -9.24581e+09 -9.25454e+09 -9.25454e+09 -9.26316e+09 -9.26316e+09 -9.27169e+09 -9.27169e+09 -9.28011e+09 -9.28011e+09 -9.28843e+09 -9.28843e+09 -9.29664e+09 -9.29664e+09 -9.30475e+09 -9.30475e+09 -9.31275e+09 -9.31275e+09 -9.32065e+09 -9.32065e+09 -9.32843e+09 -9.32843e+09 -9.33611e+09 -9.33611e+09 -9.34368e+09 -9.34368e+09 -9.35113e+09 -9.35113e+09 -9.35847e+09 -9.35847e+09 -9.3657e+09 -9.3657e+09 -9.37282e+09 -9.37282e+09 -9.37982e+09 -9.37982e+09 -9.3867e+09 -9.3867e+09 -9.39347e+09 -9.39347e+09 -9.40012e+09 -9.40012e+09 -9.40664e+09 -9.40664e+09 -9.41305e+09 -9.41305e+09 -9.41933e+09 -9.41933e+09 -9.4255e+09 -9.4255e+09 -9.43153e+09 -9.43153e+09 -9.43744e+09 -9.43744e+09 -9.44323e+09 -9.4