# vtk DataFile Version 3.0
#This file was generated by the deal.II library on 2020/9/1 at 15:07:02
ASCII
DATASET UNSTRUCTURED_GRID

POINTS 2048 double
1.5 0 0
1.59619 0 0
1.59619 0 0
1.69238 0 0
1.69238 0 0
1.78857 0 0
1.78857 0 0
1.88477 0 0
1.88477 0 0
1.98096 0 0
1.98096 0 0
2.07715 0 0
2.07715 0 0
2.17334 0 0
2.17334 0 0
2.26953 0 0
2.26953 0 0
2.36572 0 0
2.36572 0 0
2.46191 0 0
2.46191 0 0
2.55811 0 0
2.55811 0 0
2.6543 0 0
2.6543 0 0
2.75049 0 0
2.75049 0 0
2.84668 0 0
2.84668 0 0
2.94287 0 0
2.94287 0 0
3.03906 0 0
3.03906 0 0
3.13525 0 0
3.13525 0 0
3.23145 0 0
3.23145 0 0
3.32764 0 0
3.32764 0 0
3.42383 0 0
3.42383 0 0
3.52002 0 0
3.52002 0 0
3.61621 0 0
3.61621 0 0
3.7124 0 0
3.7124 0 0
3.80859 0 0
3.80859 0 0
3.90479 0 0
3.90479 0 0
4.00098 0 0
4.00098 0 0
4.09717 0 0
4.09717 0 0
4.19336 0 0
4.19336 0 0
4.28955 0 0
4.28955 0 0
4.38574 0 0
4.38574 0 0
4.48193 0 0
4.48193 0 0
4.57812 0 0
4.57812 0 0
4.67432 0 0
4.67432 0 0
4.77051 0 0
4.77051 0 0
4.8667 0 0
4.8667 0 0
4.96289 0 0
4.96289 0 0
5.05908 0 0
5.05908 0 0
5.15527 0 0
5.15527 0 0
5.25146 0 0
5.25146 0 0
5.34766 0 0
5.34766 0 0
5.44385 0 0
5.44385 0 0
5.54004 0 0
5.54004 0 0
5.63623 0 0
5.63623 0 0
5.73242 0 0
5.73242 0 0
5.82861 0 0
5.82861 0 0
5.9248 0 0
5.9248 0 0
6.021 0 0
6.021 0 0
6.11719 0 0
6.11719 0 0
6.21338 0 0
6.21338 0 0
6.30957 0 0
6.30957 0 0
6.40576 0 0
6.40576 0 0
6.50195 0 0
6.50195 0 0
6.59814 0 0
6.59814 0 0
6.69434 0 0
6.69434 0 0
6.79053 0 0
6.79053 0 0
6.88672 0 0
6.88672 0 0
6.98291 0 0
6.98291 0 0
7.0791 0 0
7.0791 0 0
7.17529 0 0
7.17529 0 0
7.27148 0 0
7.27148 0 0
7.36768 0 0
7.36768 0 0
7.46387 0 0
7.46387 0 0
7.56006 0 0
7.56006 0 0
7.65625 0 0
7.65625 0 0
7.75244 0 0
7.75244 0 0
7.84863 0 0
7.84863 0 0
7.94482 0 0
7.94482 0 0
8.04102 0 0
8.04102 0 0
8.13721 0 0
8.13721 0 0
8.2334 0 0
8.2334 0 0
8.32959 0 0
8.32959 0 0
8.42578 0 0
8.42578 0 0
8.52197 0 0
8.52197 0 0
8.61816 0 0
8.61816 0 0
8.71436 0 0
8.71436 0 0
8.81055 0 0
8.81055 0 0
8.90674 0 0
8.90674 0 0
9.00293 0 0
9.00293 0 0
9.09912 0 0
9.09912 0 0
9.19531 0 0
9.19531 0 0
9.2915 0 0
9.2915 0 0
9.3877 0 0
9.3877 0 0
9.48389 0 0
9.48389 0 0
9.58008 0 0
9.58008 0 0
9.67627 0 0
9.67627 0 0
9.77246 0 0
9.77246 0 0
9.86865 0 0
9.86865 0 0
9.96484 0 0
9.96484 0 0
10.061 0 0
10.061 0 0
10.1572 0 0
10.1572 0 0
10.2534 0 0
10.2534 0 0
10.3496 0 0
10.3496 0 0
10.4458 0 0
10.4458 0 0
10.542 0 0
10.542 0 0
10.6382 0 0
10.6382 0 0
10.7344 0 0
10.7344 0 0
10.8306 0 0
10.8306 0 0
10.9268 0 0
10.9268 0 0
11.0229 0 0
11.0229 0 0
11.1191 0 0
11.1191 0 0
11.2153 0 0
11.2153 0 0
11.3115 0 0
11.3115 0 0
11.4077 0 0
11.4077 0 0
11.5039 0 0
11.5039 0 0
11.6001 0 0
11.6001 0 0
11.6963 0 0
11.6963 0 0
11.7925 0 0
11.7925 0 0
11.8887 0 0
11.8887 0 0
11.9849 0 0
11.9849 0 0
12.0811 0 0
12.0811 0 0
12.1772 0 0
12.1772 0 0
12.2734 0 0
12.2734 0 0
12.3696 0 0
12.3696 0 0
12.4658 0 0
12.4658 0 0
12.562 0 0
12.562 0 0
12.6582 0 0
12.6582 0 0
12.7544 0 0
12.7544 0 0
12.8506 0 0
12.8506 0 0
12.9468 0 0
12.9468 0 0
13.043 0 0
13.043 0 0
13.1392 0 0
13.1392 0 0
13.2354 0 0
13.2354 0 0
13.3315 0 0
13.3315 0 0
13.4277 0 0
13.4277 0 0
13.5239 0 0
13.5239 0 0
13.6201 0 0
13.6201 0 0
13.7163 0 0
13.7163 0 0
13.8125 0 0
13.8125 0 0
13.9087 0 0
13.9087 0 0
14.0049 0 0
14.0049 0 0
14.1011 0 0
14.1011 0 0
14.1973 0 0
14.1973 0 0
14.2935 0 0
14.2935 0 0
14.3896 0 0
14.3896 0 0
14.4858 0 0
14.4858 0 0
14.582 0 0
14.582 0 0
14.6782 0 0
14.6782 0 0
14.7744 0 0
14.7744 0 0
14.8706 0 0
14.8706 0 0
14.9668 0 0
14.9668 0 0
15.063 0 0
15.063 0 0
15.1592 0 0
15.1592 0 0
15.2554 0 0
15.2554 0 0
15.3516 0 0
15.3516 0 0
15.4478 0 0
15.4478 0 0
15.5439 0 0
15.5439 0 0
15.6401 0 0
15.6401 0 0
15.7363 0 0
15.7363 0 0
15.8325 0 0
15.8325 0 0
15.9287 0 0
15.9287 0 0
16.0249 0 0
16.0249 0 0
16.1211 0 0
16.1211 0 0
16.2173 0 0
16.2173 0 0
16.3135 0 0
16.3135 0 0
16.4097 0 0
16.4097 0 0
16.5059 0 0
16.5059 0 0
16.6021 0 0
16.6021 0 0
16.6982 0 0
16.6982 0 0
16.7944 0 0
16.7944 0 0
16.8906 0 0
16.8906 0 0
16.9868 0 0
16.9868 0 0
17.083 0 0
17.083 0 0
17.1792 0 0
17.1792 0 0
17.2754 0 0
17.2754 0 0
17.3716 0 0
17.3716 0 0
17.4678 0 0
17.4678 0 0
17.564 0 0
17.564 0 0
17.6602 0 0
17.6602 0 0
17.7563 0 0
17.7563 0 0
17.8525 0 0
17.8525 0 0
17.9487 0 0
17.9487 0 0
18.0449 0 0
18.0449 0 0
18.1411 0 0
18.1411 0 0
18.2373 0 0
18.2373 0 0
18.3335 0 0
18.3335 0 0
18.4297 0 0
18.4297 0 0
18.5259 0 0
18.5259 0 0
18.6221 0 0
18.6221 0 0
18.7183 0 0
18.7183 0 0
18.8145 0 0
18.8145 0 0
18.9106 0 0
18.9106 0 0
19.0068 0 0
19.0068 0 0
19.103 0 0
19.103 0 0
19.1992 0 0
19.1992 0 0
19.2954 0 0
19.2954 0 0
19.3916 0 0
19.3916 0 0
19.4878 0 0
19.4878 0 0
19.584 0 0
19.584 0 0
19.6802 0 0
19.6802 0 0
19.7764 0 0
19.7764 0 0
19.8726 0 0
19.8726 0 0
19.9688 0 0
19.9688 0 0
20.0649 0 0
20.0649 0 0
20.1611 0 0
20.1611 0 0
20.2573 0 0
20.2573 0 0
20.3535 0 0
20.3535 0 0
20.4497 0 0
20.4497 0 0
20.5459 0 0
20.5459 0 0
20.6421 0 0
20.6421 0 0
20.7383 0 0
20.7383 0 0
20.8345 0 0
20.8345 0 0
20.9307 0 0
20.9307 0 0
21.0269 0 0
21.0269 0 0
21.123 0 0
21.123 0 0
21.2192 0 0
21.2192 0 0
21.3154 0 0
21.3154 0 0
21.4116 0 0
21.4116 0 0
21.5078 0 0
21.5078 0 0
21.604 0 0
21.604 0 0
21.7002 0 0
21.7002 0 0
21.7964 0 0
21.7964 0 0
21.8926 0 0
21.8926 0 0
21.9888 0 0
21.9888 0 0
22.085 0 0
22.085 0 0
22.1812 0 0
22.1812 0 0
22.2773 0 0
22.2773 0 0
22.3735 0 0
22.3735 0 0
22.4697 0 0
22.4697 0 0
22.5659 0 0
22.5659 0 0
22.6621 0 0
22.6621 0 0
22.7583 0 0
22.7583 0 0
22.8545 0 0
22.8545 0 0
22.9507 0 0
22.9507 0 0
23.0469 0 0
23.0469 0 0
23.1431 0 0
23.1431 0 0
23.2393 0 0
23.2393 0 0
23.3354 0 0
23.3354 0 0
23.4316 0 0
23.4316 0 0
23.5278 0 0
23.5278 0 0
23.624 0 0
23.624 0 0
23.7202 0 0
23.7202 0 0
23.8164 0 0
23.8164 0 0
23.9126 0 0
23.9126 0 0
24.0088 0 0
24.0088 0 0
24.105 0 0
24.105 0 0
24.2012 0 0
24.2012 0 0
24.2974 0 0
24.2974 0 0
24.3936 0 0
24.3936 0 0
24.4897 0 0
24.4897 0 0
24.5859 0 0
24.5859 0 0
24.6821 0 0
24.6821 0 0
24.7783 0 0
24.7783 0 0
24.8745 0 0
24.8745 0 0
24.9707 0 0
24.9707 0 0
25.0669 0 0
25.0669 0 0
25.1631 0 0
25.1631 0 0
25.2593 0 0
25.2593 0 0
25.3555 0 0
25.3555 0 0
25.4517 0 0
25.4517 0 0
25.5479 0 0
25.5479 0 0
25.644 0 0
25.644 0 0
25.7402 0 0
25.7402 0 0
25.8364 0 0
25.8364 0 0
25.9326 0 0
25.9326 0 0
26.0288 0 0
26.0288 0 0
26.125 0 0
26.125 0 0
26.2212 0 0
26.2212 0 0
26.3174 0 0
26.3174 0 0
26.4136 0 0
26.4136 0 0
26.5098 0 0
26.5098 0 0
26.606 0 0
26.606 0 0
26.7021 0 0
26.7021 0 0
26.7983 0 0
26.7983 0 0
26.8945 0 0
26.8945 0 0
26.9907 0 0
26.9907 0 0
27.0869 0 0
27.0869 0 0
27.1831 0 0
27.1831 0 0
27.2793 0 0
27.2793 0 0
27.3755 0 0
27.3755 0 0
27.4717 0 0
27.4717 0 0
27.5679 0 0
27.5679 0 0
27.6641 0 0
27.6641 0 0
27.7603 0 0
27.7603 0 0
27.8564 0 0
27.8564 0 0
27.9526 0 0
27.9526 0 0
28.0488 0 0
28.0488 0 0
28.145 0 0
28.145 0 0
28.2412 0 0
28.2412 0 0
28.3374 0 0
28.3374 0 0
28.4336 0 0
28.4336 0 0
28.5298 0 0
28.5298 0 0
28.626 0 0
28.626 0 0
28.7222 0 0
28.7222 0 0
28.8184 0 0
28.8184 0 0
28.9146 0 0
28.9146 0 0
29.0107 0 0
29.0107 0 0
29.1069 0 0
29.1069 0 0
29.2031 0 0
29.2031 0 0
29.2993 0 0
29.2993 0 0
29.3955 0 0
29.3955 0 0
29.4917 0 0
29.4917 0 0
29.5879 0 0
29.5879 0 0
29.6841 0 0
29.6841 0 0
29.7803 0 0
29.7803 0 0
29.8765 0 0
29.8765 0 0
29.9727 0 0
29.9727 0 0
30.0688 0 0
30.0688 0 0
30.165 0 0
30.165 0 0
30.2612 0 0
30.2612 0 0
30.3574 0 0
30.3574 0 0
30.4536 0 0
30.4536 0 0
30.5498 0 0
30.5498 0 0
30.646 0 0
30.646 0 0
30.7422 0 0
30.7422 0 0
30.8384 0 0
30.8384 0 0
30.9346 0 0
30.9346 0 0
31.0308 0 0
31.0308 0 0
31.127 0 0
31.127 0 0
31.2231 0 0
31.2231 0 0
31.3193 0 0
31.3193 0 0
31.4155 0 0
31.4155 0 0
31.5117 0 0
31.5117 0 0
31.6079 0 0
31.6079 0 0
31.7041 0 0
31.7041 0 0
31.8003 0 0
31.8003 0 0
31.8965 0 0
31.8965 0 0
31.9927 0 0
31.9927 0 0
32.0889 0 0
32.0889 0 0
32.1851 0 0
32.1851 0 0
32.2812 0 0
32.2812 0 0
32.3774 0 0
32.3774 0 0
32.4736 0 0
32.4736 0 0
32.5698 0 0
32.5698 0 0
32.666 0 0
32.666 0 0
32.7622 0 0
32.7622 0 0
32.8584 0 0
32.8584 0 0
32.9546 0 0
32.9546 0 0
33.0508 0 0
33.0508 0 0
33.147 0 0
33.147 0 0
33.2432 0 0
33.2432 0 0
33.3394 0 0
33.3394 0 0
33.4355 0 0
33.4355 0 0
33.5317 0 0
33.5317 0 0
33.6279 0 0
33.6279 0 0
33.7241 0 0
33.7241 0 0
33.8203 0 0
33.8203 0 0
33.9165 0 0
33.9165 0 0
34.0127 0 0
34.0127 0 0
34.1089 0 0
34.1089 0 0
34.2051 0 0
34.2051 0 0
34.3013 0 0
34.3013 0 0
34.3975 0 0
34.3975 0 0
34.4937 0 0
34.4937 0 0
34.5898 0 0
34.5898 0 0
34.686 0 0
34.686 0 0
34.7822 0 0
34.7822 0 0
34.8784 0 0
34.8784 0 0
34.9746 0 0
34.9746 0 0
35.0708 0 0
35.0708 0 0
35.167 0 0
35.167 0 0
35.2632 0 0
35.2632 0 0
35.3594 0 0
35.3594 0 0
35.4556 0 0
35.4556 0 0
35.5518 0 0
35.5518 0 0
35.6479 0 0
35.6479 0 0
35.7441 0 0
35.7441 0 0
35.8403 0 0
35.8403 0 0
35.9365 0 0
35.9365 0 0
36.0327 0 0
36.0327 0 0
36.1289 0 0
36.1289 0 0
36.2251 0 0
36.2251 0 0
36.3213 0 0
36.3213 0 0
36.4175 0 0
36.4175 0 0
36.5137 0 0
36.5137 0 0
36.6099 0 0
36.6099 0 0
36.7061 0 0
36.7061 0 0
36.8022 0 0
36.8022 0 0
36.8984 0 0
36.8984 0 0
36.9946 0 0
36.9946 0 0
37.0908 0 0
37.0908 0 0
37.187 0 0
37.187 0 0
37.2832 0 0
37.2832 0 0
37.3794 0 0
37.3794 0 0
37.4756 0 0
37.4756 0 0
37.5718 0 0
37.5718 0 0
37.668 0 0
37.668 0 0
37.7642 0 0
37.7642 0 0
37.8604 0 0
37.8604 0 0
37.9565 0 0
37.9565 0 0
38.0527 0 0
38.0527 0 0
38.1489 0 0
38.1489 0 0
38.2451 0 0
38.2451 0 0
38.3413 0 0
38.3413 0 0
38.4375 0 0
38.4375 0 0
38.5337 0 0
38.5337 0 0
38.6299 0 0
38.6299 0 0
38.7261 0 0
38.7261 0 0
38.8223 0 0
38.8223 0 0
38.9185 0 0
38.9185 0 0
39.0146 0 0
39.0146 0 0
39.1108 0 0
39.1108 0 0
39.207 0 0
39.207 0 0
39.3032 0 0
39.3032 0 0
39.3994 0 0
39.3994 0 0
39.4956 0 0
39.4956 0 0
39.5918 0 0
39.5918 0 0
39.688 0 0
39.688 0 0
39.7842 0 0
39.7842 0 0
39.8804 0 0
39.8804 0 0
39.9766 0 0
39.9766 0 0
40.0728 0 0
40.0728 0 0
40.1689 0 0
40.1689 0 0
40.2651 0 0
40.2651 0 0
40.3613 0 0
40.3613 0 0
40.4575 0 0
40.4575 0 0
40.5537 0 0
40.5537 0 0
40.6499 0 0
40.6499 0 0
40.7461 0 0
40.7461 0 0
40.8423 0 0
40.8423 0 0
40.9385 0 0
40.9385 0 0
41.0347 0 0
41.0347 0 0
41.1309 0 0
41.1309 0 0
41.2271 0 0
41.2271 0 0
[...]
POINT_DATA 2048
SCALARS solution_0 double 1
LOOKUP_TABLE default
10468.1 11208.9 11208.9 12010.2 12010.2 12849.3 12849.3 13709.9 13709.9 14580.5 14580.5 15452.6 15452.6 16320.2 16320.2 17179 17179 18026 18026 18859.1 18859.1 19676.8 19676.8 20478.3 20478.3 21263.1 21263.1 22030.8 22030.8 22781.5 22781.5 23515.3 23515.3 24232.3 24232.3 24932.9 24932.9 25617.3 25617.3 26286 26286 26939.3 26939.3 27577.7 27577.7 28201.5 28201.5 28811.2 28811.2 29407.1 29407.1 29989.7 29989.7 30559.2 30559.2 31116.2 31116.2 31660.9 31660.9 32193.6 32193.6 32714.8 32714.8 33224.7 33224.7 33723.6 33723.6 34211.8 34211.8 34689.6 34689.6 35157.2 35157.2 35614.9 35614.9 36062.9 36062.9 36501.4 36501.4 36930.8 36930.8 37351.1 37351.1 37762.6 37762.6 38165.4 38165.4 38559.8 38559.8 38945.8 38945.8 39323.8 39323.8 39693.8 39693.8 40055.9 40055.9 40410.4 40410.4 40757.4 40757.4 41096.9 41096.9 41429.2 41429.2 41754.3 41754.3 42072.4 42072.4 42383.5 42383.5 42687.9 42687.9 42985.5 42985.5 43276.5 43276.5 43561 43561 43839.1 43839.1 44110.8 44110.8 44376.3 44376.3 44635.7 44635.7 44889 44889 45136.3 45136.3 45377.6 45377.6 45613.2 45613.2 45842.9 45842.9 46067 46067 46285.5 46285.5 46498.3 46498.3 46705.7 46705.7 46907.7 46907.7 47104.3 47104.3 47295.6 47295.6 47481.6 47481.6 47662.5 47662.5 47838.2 47838.2 48008.9 48008.9 48174.5 48174.5 48335.2 48335.2 48491 48491 48641.9 48641.9 48788 48788 48929.3 48929.3 49066 49066 49198 49198 49325.4 49325.4 49448.2 49448.2 49566.5 49566.5 49680.4 49680.4 49789.8 49789.8 49894.9 49894.9 49995.7 49995.7 50092.1 50092.1 50184.3 50184.3 50272.4 50272.4 50356.2 50356.2 50436 50436 50511.7 50511.7 50583.4 50583.4 50651 50651 50714.8 50714.8 50774.6 50774.6 50830.6 50830.6 50882.8 50882.8 50931.1 50931.1 50975.8 50975.8 51016.7 51016.7 51054 51054 51087.6 51087.6 51117.7 51117.7 51144.2 51144.2 51167.2 51167.2 51186.7 51186.7 51202.8 51202.8 51215.5 51215.5 51224.9 51224.9 51230.9 51230.9 51233.6 51233.6 51233.1 51233.1 51229.4 51229.4 51222.5 51222.5 51212.4 51212.4 51199.2 51199.2 51183 51183 51163.8 51163.8 51141.5 51141.5 51116.3 51116.3 51088.1 51088.1 51057 51057 51023.1 51023.1 50986.4 50986.4 50946.8 50946.8 50904.5 50904.5 50859.5 50859.5 50811.8 50811.8 50761.4 50761.4 50708.4 50708.4 50652.8 50652.8 50594.7 50594.7 50534 50534 50470.8 50470.8 50405.1 50405.1 50337.1 50337.1 50266.6 50266.6 50193.7 50193.7 50118.5 50118.5 50041.1 50041.1 49961.3 49961.3 49879.3 49879.3 49795.1 49795.1 49708.7 49708.7 49620.1 49620.1 49529.4 49529.4 49436.7 49436.7 49341.9 49341.9 49245 49245 49146.1 49146.1 49045.3 49045.3 48942.5 48942.5 48837.8 48837.8 48731.3 48731.3 48622.8 48622.8 48512.6 48512.6 48400.5 48400.5 48286.7 48286.7 48171.1 48171.1 48053.9 48053.9 47934.9 47934.9 47814.2 47814.2 47692 47692 47568.1 47568.1 47442.6 47442.6 47315.6 47315.6 47187.1 47187.1 47057.1 47057.1 46925.6 46925.6 46792.6 46792.6 46658.2 46658.2 46522.5 46522.5 46385.3 46385.3 46246.8 46246.8 46107 46107 45965.9 45965.9 45823.5 45823.5 45679.9 45679.9 45535 45535 45389 45389 45241.8 45241.8 45093.4 45093.4 44943.9 44943.9 44793.3 44793.3 44641.6 44641.6 44488.8 44488.8 44335 44335 44180.2 44180.2 44024.5 44024.5 43867.7 43867.7 43710 43710 43551.4 43551.4 43391.8 43391.8 43231.4 43231.4 43070.1 43070.1 42908 42908 42745.1 42745.1 42581.4 42581.4 42416.9 42416.9 42251.6 42251.6 42085.6 42085.6 41918.9 41918.9 41751.5 41751.5 41583.4 41583.4 41414.6 41414.6 41245.2 41245.2 41075.2 41075.2 40904.6 40904.6 40733.4 40733.4 40561.7 40561.7 40389.4 40389.4 40216.5 40216.5 40043.2 40043.2 39869.4 39869.4 39695.1 39695.1 39520.3 39520.3 39345.1 39345.1 39169.5 39169.5 38993.4 38993.4 38817 38817 38640.2 38640.2 38463.1 38463.1 38285.6 38285.6 38107.8 38107.8 37929.7 37929.7 37751.2 37751.2 37572.6 37572.6 37393.6 37393.6 37214.4 37214.4 37035 37035 36855.3 36855.3 36675.5 36675.5 36495.4 36495.4 36315.2 36315.2 36134.8 36134.8 35954.3 35954.3 35773.6 35773.6 35592.9 35592.9 35412 35412 35231 35231 35050 35050 34868.9 34868.9 34687.7 34687.7 34506.5 34506.5 34325.3 34325.3 34144 34144 33962.8 33962.8 33781.5 33781.5 33600.3 33600.3 33419.1 33419.1 33237.9 33237.9 33056.8 33056.8 32875.8 32875.8 32694.9 32694.9 32514 32514 32333.2 32333.2 32152.6 32152.6 31972 31972 31791.6 31791.6 31611.4 31611.4 31431.2 31431.2 31251.3 31251.3 31071.5 31071.5 30891.9 30891.9 30712.5 30712.5 30533.3 30533.3 30354.3 30354.3 30175.5 30175.5 29996.9 29996.9 29818.6 29818.6 29640.5 29640.5 29462.6 29462.6 29285.1 29285.1 29107.8 29107.8 28930.7 28930.7 28754 28754 28577.5 28577.5 28401.4 28401.4 28225.5 28225.5 28050 28050 27874.8 27874.8 27699.9 27699.9 27525.3 27525.3 27351.1 27351.1 27177.3 27177.3 27003.8 27003.8 26830.7 26830.7 26657.9 26657.9 26485.5 26485.5 26313.5 26313.5 26141.9 26141.9 25970.7 25970.7 25799.9 25799.9 25629.5 25629.5 25459.5 25459.5 25289.9 25289.9 25120.8 25120.8 24952.1 24952.1 24783.8 24783.8 24615.9 24615.9 24448.5 24448.5 24281.6 24281.6 24115.1 24115.1 23949.1 23949.1 23783.5 23783.5 23618.4 23618.4 23453.8 23453.8 23289.6 23289.6 23125.9 23125.9 22962.7 22962.7 22800 22800 22637.8 22637.8 22476.1 22476.1 22314.9 22314.9 22154.2 22154.2 21994 21994 21834.4 21834.4 21675.2 21675.2 21516.6 21516.6 21358.4 21358.4 21200.8 21200.8 21043.8 21043.8 20887.2 20887.2 20731.2 20731.2 20575.8 20575.8 20420.9 20420.9 20266.5 20266.5 20112.7 20112.7 19959.4 19959.4 19806.6 19806.6 19654.4 19654.4 19502.8 19502.8 19351.7 19351.7 19201.2 19201.2 19051.3 19051.3 18901.9 18901.9 18753.1 18753.1 18604.8 18604.8 18457.1 18457.1 18310 18310 18163.5 18163.5 18017.5 18017.5 17872.1 17872.1 17727.3 17727.3 17583 17583 17439.4 17439.4 17296.3 17296.3 17153.8 17153.8 17011.9 17011.9 16870.5 16870.5 16729.8 16729.8 16589.6 16589.6 16450 16450 16311 16311 16172.6 16172.6 16034.8 16034.8 15897.6 15897.6 15761 15761 15624.9 15624.9 15489.5 15489.5 15354.6 15354.6 15220.3 15220.3 15086.6 15086.6 14953.5 14953.5 14821 14821 14689.1 14689.1 14557.8 14557.8 14427.1 14427.1 14297 14297 14167.5 14167.5 14038.5 14038.5 13910.2 13910.2 13782.4 13782.4 13655.3 13655.3 13528.7 13528.7 13402.7 13402.7 13277.3 13277.3 13152.5 13152.5 13028.3 13028.3 12904.7 12904.7 12781.7 12781.7 12659.2 12659.2 12537.4 12537.4 12416.1 12416.1 12295.4 12295.4 12175.4 12175.4 12055.9 12055.9 11936.9 11936.9 11818.6 11818.6 11700.9 11700.9 11583.7 11583.7 11467.1 11467.1 11351.1 11351.1 11235.7 11235.7 11120.8 11120.8 11006.6 11006.6 10892.9 10892.9 10779.7 10779.7 10667.2 10667.2 10555.2 10555.2 10443.8 10443.8 10333 10333 10222.8 10222.8 10113.1 10113.1 10003.9 10003.9 9895.39 9895.39 9787.4 9787.4 9679.98 9679.98 9573.11 9573.11 9466.81 9466.81 9361.06 9361.06 9255.88 9255.88 9151.25 9151.25 9047.17 9047.17 8943.65 8943.65 8840.68 8840.68 8738.26 8738.26 8636.39 8636.39 8535.06 8535.06 8434.28 8434.28 8334.05 8334.05 8234.36 8234.36 8135.2 8135.2 8036.59 8036.59 7938.51 7938.51 7840.97 7840.97 7743.97 7743.97 7647.49 7647.49 7551.55 7551.55 7456.13 7456.13 7361.24 7361.24 7266.88 7266.88 7173.04 7173.04 7079.72 7079.72 6986.92 6986.92 6894.64 6894.64 6802.87 6802.87 6711.62 6711.62 6620.88 6620.88 6530.65 6530.65 6440.93 6440.93 6351.72 6351.72 6263.01 6263.01 6174.8 6174.8 6087.09 6087.09 5999.88 5999.88 5913.17 5913.17 5826.95 5826.95 5741.23 5741.23 5656 5656 5571.25 5571.25 5487 5487 5403.22 5403.22 5319.93 5319.93 5237.13 5237.13 5154.8 5154.8 5072.94 5072.94 4991.56 4991.56 4910.66 4910.66 4830.22 4830.22 4750.26 4750.26 4670.76 4670.76 4591.72 4591.72 4513.15 4513.15 4435.04 4435.04 4357.39 4357.39 4280.19 4280.19 4203.45 4203.45 4127.15 4127.15 4051.31 4051.31 3975.92 3975.92 3900.98 3900.98 3826.47 3826.47 3752.41 3752.41 3678.79 3678.79 3605.61 3605.61 3532.86 3532.86 3460.55 3460.55 3388.66 3388.66 3317.21 3317.21 3246.18 3246.18 3175.58 3175.58 3105.4 3105.4 3035.65 3035.65 2966.31 2966.31 2897.39 2897.39 2828.88 2828.88 2760.79 2760.79 2693.11 2693.11 2625.83 2625.83 2558.96 2558.96 2492.5 2492.5 2426.44 2426.44 2360.78 2360.78 2295.52 2295.52 2230.65 2230.65 2166.18 2166.18 2102.1 2102.1 2038.41 2038.41 1975.11 1975.11 1912.19 1912.19 1849.66 1849.66 1787.51 1787.51 1725.74 1725.74 1664.35 1664.35 1603.34 1603.34 1542.69 1542.69 1482.42 1482.42 1422.52 1422.52 1362.99 1362.99 1303.83 1303.83 1245.02 1245.02 1186.58 1186.58 1128.5 1128.5 1070.78 1070.78 1013.41 1013.41 956.401 956.401 899.741 899.741 843.431 843.431 787.469 787.469 731.854 731.854 676.583 676.583 621.654 621.654 567.066 567.066 512.816 512.816 458.904 458.904 405.326 405.326 352.081 352.081 299.167 299.167 246.582 246.582 194.325 194.325 142.393 142.393 90.7853 90.7853 39.4989 39.4989 -11.4674 -11.4674 -62.1156 -62.1156 -112.448 -112.448 -162.465 -162.465 -212.17 -212.17 -261.563 -261.563 -310.648 -310.648 -359.425 -359.425 -407.897 -407.897 -456.065 -456.065 -503.931 -503.931 -551.496 -551.496 -598.763 -598.763 -645.733 -645.733 -692.408 -692.408 -738.79 -738.79 -784.88 -784.88 -830.679 -830.679 -876.191 -876.191 -921.416 -921.416 -966.355 -966.355 -1011.01 -1011.01 -1055.39 -1055.39 -1099.48 -1099.48 -1143.3 -1143.3 -1186.84 -1186.84 -1230.1 -1230.1 -1273.09 -1273.09 -1315.81 -1315.81 -1358.26 -1358.26 -1400.44 -1400.44 -1442.35 -1442.35 -1484 -1484 -1525.38 -1525.38 -1566.5 -1566.5 -1607.36 -1607.36 -1647.96 -1647.96 -1688.3 -1688.3 -1728.39 -1728.39 -1768.22 -1768.22 -1807.79 -1807.79 -1847.12 -1847.12 -1886.19 -1886.19 -1925.01 -1925.01 -1963.59 -1963.59 -2001.92 -2001.92 -2040.01 -2040.01 -2077.85 -2077.85 -2115.45 -2115.45 -2152.81 -2152.81 -2189.93 -2189.93 -2226.81 -2226.81 -2263.45 -2263.45 -2299.86 -2299.86 -2336.04 -2336.04 -2371.99 -2371.99 -2407.7 -2407.7 -2443.18 -2443.18 -2478.44 -2478.44 -2513.46 -2513.46 -2548.26 -2548.26 -2582.84 -2582.84 -2617.19 -2617.19 -2651.32 -2651.32 -2685.23 -2685.23 -2718.92 -2718.92 -2752.4 -2752.4 -2785.65 -2785.65 -2818.69 -2818.69 -2851.51 -2851.51 -2884.12 -2884.12 -2916.52 -2916.52 -2948.71 -2948.71 -2980.68 -2980.68 -3012.45 -3012.45 -3044.01 -3044.01 -3075.36 -3075.36 -3106.51 -3106.51 -3137.45 -3137.45 -3168.19 -3168.19 -3198.72 -3198.72 -3229.06 -3229.06 -3259.19 -3259.19 -3289.13 -3289.13 -3318.86 -3318.86 -3348.41 -3348.41 -3377.75 -3377.75 -3406.9 -3406.9 -3435.85 -3435.85 -3464.62 -3464.62 -3493.19 -3493.19 -3521.56 -3521.56 -3549.75 -3549.75 -3577.75 -3577.75 -3605.56 -3605.56 -3633.19 -3633.19 -3660.63 -3660.63 -3687.88 -3687.88 -3714.95 -3714.95 -3741.83 -3741.83 -3768.53 -3768.53 -3795.05 -3795.05 -3821.39 -3821.39 -3847.55 -3847.55 -3873.53 -3873.53 -3899.33 -3899.33 -3924.95 -3924.95 -3950.4 -3950.4 -3975.67 -3975.67 -4000.76 -4000.76 -4025.68 -4025.68 -4050.43 -4050.43 -4075 -4075 -4099.41 -4099.41 -4123.64 -4123.64 -4147.7 -4147.7 -4171.59 -4171.59 -4195.31 -4195.31 -4218.86 -4218.86 -4242.25 -4242.25 -4265.46 -4265.46 -4288.51 -4288.51 -4311.4 -4311.4 -4334.12 -4334.12 -4356.68 -4356.68 -4379.07 -4379.07 -4401.3 -4401.3 -4423.37 -4423.37 -4445.27 -4445.27 -4467.02 -4467.02 -4488.6 -4488.6 -4510.02 -4510.02 -4531.29 -4531.29 -4552.39 -4552.39 -4573.34 -4573.34 -4594.13 -4594.13 -4614.76 -4614.76 -4635.24 -4635.24 -4655.56 -4655.56 -4675.72 -4675.72 -4695.73 -4695.73 -4715.59 -4715.59 -4735.29 -4735.29 -4754.83 -4754.83 -4774.23 -4774.23 -4793.47 -4793.47 -4812.56 -4812.56 -4831.49 -4831.49 -4850.28 -4850.28 -4868.91 -4868.91 -4887.4 -4887.4 -4905.73 -4905.73 -4923.92 -4923.92 -4941.95 -4941.95 -4959.84 -4959.84 -4977.58 -4977.58 -4995.17 -4995.17 -5012.61 -5012.61 -5029.91 -5029.91 -5047.06 -5047.06 -5064.06 -5064.06 -5080.91 -5080.91 -5097.62 -5097.62 -5114.19 -5114.19 -5130.6 -5130.6 -5146.88 -5146.88 -5163.01 -5163.01 -5178.99 -5178.99 -5194.83 -5194.83 -5210.53 -5210.53 -5226.08 -5226.08 -5241.49 -5241.49 -5256.75 -5256.75 -5271.88 -5271.88 -5286.86 -5286.86 -5301.69 -5301.69 -5316.39 -5316.39 -5330.94 -5330.94 -5345.36 -5345.36 -5359.63 -5359.63 -5373.75 -5373.75 -5387.74 -5387.74 -5401.59 -5401.59 -5415.29 -5415.29 -5428.86 -5428.86 -5442.28 -5442.28 -5455.56 -5455.56 -5468.71 -5468.71 -5481.71 -5481.71 -5494.57 -5494.57 -5507.3 -5507.3 -5519.88 -5519.88 -5532.32 -5532.32 -5544.63 -5544.63 -5556.79 -5556.79 -5568.81 -5568.81 -5580.7 -5580.7 -5592.45 -5592.45 -5604.05 -5604.05 -5615.52 -5615.52 -5626.85 -5626.85 -5638.04 -5638.04 -5649.09 -5649.09 -5660 -5660 -5670.77 -5670.77 -5681.4 -5681.4 -5691.89 -5691.89 -5702.25 -5702.25 -5712.46 -5712.46 -5722.54 -5722.54 -5732.48 -5732.48 -5742.28 -5742.28 -5751.94 -5751.94 -5761.46 -5761.46 -5770.84 -5770.84 -5780.08 -5780.08 -5789.19 -5789.19 -5798.15 -5798.15 -5806.98 -5806.98 -5815.66 -5815.66 -5824.21 -5824.21 -5832.61 -5832.61 -5840.88 -5840.88 -5849.01 -5849.01 -5857 -5857 -5864.85 -5864.85 -5872.55 -5872.55 -5880.12 -5880.12 -5887.55 -5887.55 -5894.84 -5894.84 -5901.99 -5901.99 -5909 -5909 -5915.86 -5915.86 -5922.59 -5922.59 -5929.18 -5929.18 -5935.62 -5935.62 -5941.93 -5941.93 -5948.09 -5948.09 -5954.11 -5954.11 -5959.99 -5959.99 -5965.73 -5965.73 -5971.33 -5971.33 -5976.79 -5976.79 -5982.1 -5982.1 -5987.27 -5987.27 -5992.3 -5992.3 -5997.19 -5997.19 -6001.93 -6001.93 -6006.54 -6006.54 -6011 -6011 -6015.31 -6015.31 -6019.48 -6019.48 -6023.51 -6023.51 -6027.4 -6027.4 -6031.14 -6031.14 -6034.74 -6034.74 -6038.19 -6038.19 -6041.5 -6041.5 -6044.67 -6044.67 -6047.69 -6047.69 -6050.56 -6050.56 -6053.29 -6053.29 -6055.88 -6055.88 -6058.32 -6058.32 -6060.61 -6060.61 -6062.76 -6062.76 -6064.76 -6064.76 -6066.61 -6066.61 -6068.32 -6068.32 -6069.88 -6069.88 -6071.3 -6071.3 -6072.57 -6072.57 -6073.69 -6073.69 -6074.66 -6074.66 -6075.49 -6075.49 -6076.17 -6076.17 -6076.7 -6076.7 -6077.08 -6077.08 -6077.31 -6077.31 -6077.4 -6077.4 -6077.33 -6077.33 -6077.12 -6077.12 -6076.76 -6076.76 -6076.25 -6076.25 -6075.59 -6075.59 -6074.78 -6074.78 -6073.81 -6073.81 -6072.7 -6072.7 -6071.44 -6071.44 -6070.03 -6070.03 -6068.47 -6068.47 -6066.76 -6066.76 -6064.89 -6064.89 -6062.88 -6062.88 -6060.71 -6060.71 -6058.39 -6058.39 -6055.92 -6055.92 -6053.3 -6053.3 -6050.53 -6050.53 -6047.61 -6047.61 -6044.53 -6044.53 -6041.3 -6041.3 -6037.92 -6037.92 -6034.38 -6034.38 -6030.7 -6030.7 -6026.86 -6026.86 -6022.86 -6022.86 -6018.72 -6018.72 -6014.42 -6014.42 -6009.97 -6009.97 -6005.36 -6005.36 -6000.6 -6000.6 -5995.69 -5995.69 -5990.62 -5990.62 -5985.41 -5985.41 -5980.03 -5980.03 -5974.51 -5974.51 -5968.83 -5968.83 -5962.99 -5962.99 -5957 -5957 -5950.86 -5950.86 -5944.57 -5944.57 -5938.12 -5938.12 -5931.52 -5931.52 -5924.76 -5924.76 -5917.85 -5917.85 -5910.79 -5910.79 -5903.57 -5903.57 -5896.2 -5896.2 -5888.67 -5888.67 -5880.99 -5880.99 -5873.16 -5873.16 -5865.18 -5865.18 -5857.04 -5857.04 -5848.75 -5848.75 -5840.3 -5840.3 -5831.71 -5831.71 -5822.96 -5822.96 -5814.06 -5814.06 -5805 -5805 -5795.79 -5795.79 -5786.44 -5786.44 -5776.93 -5776.93 -5767.26 -5767.26 -5757.45 -5757.45 -5747.49 -5747.49 -5737.37 -5737.37 -5727.11 -5727.11 -5716.69 -5716.69 -5706.13 -5706.13 -5695.41 -5695.41 -5684.55 -5684.55 -5673.53 -5673.53 -5662.37 -5662.37 -5651.06 -5651.06 -5639.61 -5639.61 -5628 -5628 -5616.25 -5616.25 -5604.35 -5604.35 -5592.31 -5592.31 -5580.12 -5580.12 -5567.78 -5567.78 -5555.3 -5555.3 -5542.68 -5542.68 -5529.92 -5529.92 -5517.01 -5517.01 -5503.96 -5503.96 -5490.76 -5490.76 -5477.43 -5477.43 -5463.95 -5463.95 -5450.34 -5450.34 -5436.59 -5436.59 -5422.7 -5422.7 -5408.67 -5408.67 -5394.5 -5394.5 -5380.2 -5380.2 -5365.77 -5365.77 -5351.2 -5351.2 -5336.49 -5336.49 -5321.66 -5321.66 -5306.69 -5306.69 -5291.59 -5291.59 -5276.36 -5276.36 -5261 -5261 -5245.52 -5245.52 -5229.9 -5229.9 -5214.17 -5214.17 -5198.3 -5198.3 -5182.31 -5182.31 -5166.21 -5166.21 -5149.98 -5149.98 -5133.62 -5133.62 -5117.15 -5117.15 -5100.57 -5100.57 -5083.86 -5083.86 -5067.04 -5067.04 -5050.11 -5050.11 -5033.06 -5033.06 -5015.91 -5015.91 -4998.64 -4998.64 -4981.27 -4981.27 -4963.78 -4963.78 -4946.2 -4946.2 -4928.5 -4928.5 -4910.71 -4910.71 -4892.82 -4892.82 -4874.82 -4874.82 -4856.73 -4856.73 -4838.55 -4838.55 -4820.27 -4820.27 -4801.9 -4801.9 -4783.43 -4783.43 -4764.88 -4764.88 -4746.24 -4746.24 -4727.52 -4727.52 -4708.71 -4708.71 -4689.83 -4689.83 -4670.86 -4670.86 -4651.82 -4651.82 -4632.7 -4632.7 -4613.51 -4613.51 -4594.25 -4594.25 -4574.93 -4574.93 -4555.53 -4555.53 -4536.07 -4536.07 -4516.55 -4516.55 -4496.98 -4496.98 -4477.34 -4477.34 -4457.65 -4457.65 -4437.91 -4437.91 -4418.12 -4418.12 -4398.29 -4398.29 -4378.41 -4378.41 -4358.49 -4358.49 -4338.53 -4338.53 -4318.53 -4318.53 -4298.5 -4298.5 -4278.44 -4278.44 -4258.36 -4258.36 -4238.25 -4238.25 -4218.11 -4218.11 -4197.96 -4197.96 -4177.8 -4177.8 -4157.62 -4157.62 -4137.44 -4137.44 -4117.24 -4117.24 -4097.05 -4097.05 -4076.85 -4076.85 -4056.67 -4056.67 -4036.48 -4036.48 -4016.31 -4016.31 -3996.16 -3996.16 -3976.02 -3976.02 -3955.9 -3955.9 -3935.81 -3935.81 -3915.75 -3915.75 -3895.72 -3895.72 -3875.73 -3875.73 -3855.78 -3855.78 -3835.88 -3835.88 -3816.02 -3816.02 -3796.22 -3796.22 -3776.47 -3776.47 -3756.78 -3756.78 -3737.16 -3737.16 -3717.61 -3717.61 -3698.13 -3698.13 -3678.74 -3678.74 -3659.42 -3659.42 -3640.19 -3640.19 -3621.06 -3621.06 -3602.02 -3602.02 -3583.08 -3583.08 -3564.25 -3564.25 -3545.53 -3545.53 -3526.92 -3526.92 -3508.44 -3508.44 -3490.08 -3490.08 -3471.86 -3471.86 -3453.76 -3453.76 -3435.82 
SCALARS solution_1 double 1
LOOKUP_TABLE default