# vtk DataFile Version 3.0
#This file was generated by the deal.II library on 2020/9/1 at 15:06:24
ASCII
DATASET UNSTRUCTURED_GRID

POINTS 2048 double
1.5 0 0
1.59619 0 0
1.59619 0 0
1.69238 0 0
1.69238 0 0
1.78857 0 0
1.78857 0 0
1.88477 0 0
1.88477 0 0
1.98096 0 0
1.98096 0 0
2.07715 0 0
2.07715 0 0
2.17334 0 0
2.17334 0 0
2.26953 0 0
2.26953 0 0
2.36572 0 0
2.36572 0 0
2.46191 0 0
2.46191 0 0
2.55811 0 0
2.55811 0 0
2.6543 0 0
2.6543 0 0
2.75049 0 0
2.75049 0 0
2.84668 0 0
2.84668 0 0
2.94287 0 0
2.94287 0 0
3.03906 0 0
3.03906 0 0
3.13525 0 0
3.13525 0 0
3.23145 0 0
3.23145 0 0
3.32764 0 0
3.32764 0 0
3.42383 0 0
3.42383 0 0
3.52002 0 0
3.52002 0 0
3.61621 0 0
3.61621 0 0
3.7124 0 0
3.7124 0 0
3.80859 0 0
3.80859 0 0
3.90479 0 0
3.90479 0 0
4.00098 0 0
4.00098 0 0
4.09717 0 0
4.09717 0 0
4.19336 0 0
4.19336 0 0
4.28955 0 0
4.28955 0 0
4.38574 0 0
4.38574 0 0
4.48193 0 0
4.48193 0 0
4.57812 0 0
4.57812 0 0
4.67432 0 0
4.67432 0 0
4.77051 0 0
4.77051 0 0
4.8667 0 0
4.8667 0 0
4.96289 0 0
4.96289 0 0
5.05908 0 0
5.05908 0 0
5.15527 0 0
5.15527 0 0
5.25146 0 0
5.25146 0 0
5.34766 0 0
5.34766 0 0
5.44385 0 0
5.44385 0 0
5.54004 0 0
5.54004 0 0
5.63623 0 0
5.63623 0 0
5.73242 0 0
5.73242 0 0
5.82861 0 0
5.82861 0 0
5.9248 0 0
5.9248 0 0
6.021 0 0
6.021 0 0
6.11719 0 0
6.11719 0 0
6.21338 0 0
6.21338 0 0
6.30957 0 0
6.30957 0 0
6.40576 0 0
6.40576 0 0
6.50195 0 0
6.50195 0 0
6.59814 0 0
6.59814 0 0
6.69434 0 0
6.69434 0 0
6.79053 0 0
6.79053 0 0
6.88672 0 0
6.88672 0 0
6.98291 0 0
6.98291 0 0
7.0791 0 0
7.0791 0 0
7.17529 0 0
7.17529 0 0
7.27148 0 0
7.27148 0 0
7.36768 0 0
7.36768 0 0
7.46387 0 0
7.46387 0 0
7.56006 0 0
7.56006 0 0
7.65625 0 0
7.65625 0 0
7.75244 0 0
7.75244 0 0
7.84863 0 0
7.84863 0 0
7.94482 0 0
7.94482 0 0
8.04102 0 0
8.04102 0 0
8.13721 0 0
8.13721 0 0
8.2334 0 0
8.2334 0 0
8.32959 0 0
8.32959 0 0
8.42578 0 0
8.42578 0 0
8.52197 0 0
8.52197 0 0
8.61816 0 0
8.61816 0 0
8.71436 0 0
8.71436 0 0
8.81055 0 0
8.81055 0 0
8.90674 0 0
8.90674 0 0
9.00293 0 0
9.00293 0 0
9.09912 0 0
9.09912 0 0
9.19531 0 0
9.19531 0 0
9.2915 0 0
9.2915 0 0
9.3877 0 0
9.3877 0 0
9.48389 0 0
9.48389 0 0
9.58008 0 0
9.58008 0 0
9.67627 0 0
9.67627 0 0
9.77246 0 0
9.77246 0 0
9.86865 0 0
9.86865 0 0
9.96484 0 0
9.96484 0 0
10.061 0 0
10.061 0 0
10.1572 0 0
10.1572 0 0
10.2534 0 0
10.2534 0 0
10.3496 0 0
10.3496 0 0
10.4458 0 0
10.4458 0 0
10.542 0 0
10.542 0 0
10.6382 0 0
10.6382 0 0
10.7344 0 0
10.7344 0 0
10.8306 0 0
10.8306 0 0
10.9268 0 0
10.9268 0 0
11.0229 0 0
11.0229 0 0
11.1191 0 0
11.1191 0 0
11.2153 0 0
11.2153 0 0
11.3115 0 0
11.3115 0 0
11.4077 0 0
11.4077 0 0
11.5039 0 0
11.5039 0 0
11.6001 0 0
11.6001 0 0
11.6963 0 0
11.6963 0 0
11.7925 0 0
11.7925 0 0
11.8887 0 0
11.8887 0 0
11.9849 0 0
11.9849 0 0
12.0811 0 0
12.0811 0 0
12.1772 0 0
12.1772 0 0
12.2734 0 0
12.2734 0 0
12.3696 0 0
12.3696 0 0
12.4658 0 0
12.4658 0 0
12.562 0 0
12.562 0 0
12.6582 0 0
12.6582 0 0
12.7544 0 0
12.7544 0 0
12.8506 0 0
12.8506 0 0
12.9468 0 0
12.9468 0 0
13.043 0 0
13.043 0 0
13.1392 0 0
13.1392 0 0
13.2354 0 0
13.2354 0 0
13.3315 0 0
13.3315 0 0
13.4277 0 0
13.4277 0 0
13.5239 0 0
13.5239 0 0
13.6201 0 0
13.6201 0 0
13.7163 0 0
13.7163 0 0
13.8125 0 0
13.8125 0 0
13.9087 0 0
13.9087 0 0
14.0049 0 0
14.0049 0 0
14.1011 0 0
14.1011 0 0
14.1973 0 0
14.1973 0 0
14.2935 0 0
14.2935 0 0
14.3896 0 0
14.3896 0 0
14.4858 0 0
14.4858 0 0
14.582 0 0
14.582 0 0
14.6782 0 0
14.6782 0 0
14.7744 0 0
14.7744 0 0
14.8706 0 0
14.8706 0 0
14.9668 0 0
14.9668 0 0
15.063 0 0
15.063 0 0
15.1592 0 0
15.1592 0 0
15.2554 0 0
15.2554 0 0
15.3516 0 0
15.3516 0 0
15.4478 0 0
15.4478 0 0
15.5439 0 0
15.5439 0 0
15.6401 0 0
15.6401 0 0
15.7363 0 0
15.7363 0 0
15.8325 0 0
15.8325 0 0
15.9287 0 0
15.9287 0 0
16.0249 0 0
16.0249 0 0
16.1211 0 0
16.1211 0 0
16.2173 0 0
16.2173 0 0
16.3135 0 0
16.3135 0 0
16.4097 0 0
16.4097 0 0
16.5059 0 0
16.5059 0 0
16.6021 0 0
16.6021 0 0
16.6982 0 0
16.6982 0 0
16.7944 0 0
16.7944 0 0
16.8906 0 0
16.8906 0 0
16.9868 0 0
16.9868 0 0
17.083 0 0
17.083 0 0
17.1792 0 0
17.1792 0 0
17.2754 0 0
17.2754 0 0
17.3716 0 0
17.3716 0 0
17.4678 0 0
17.4678 0 0
17.564 0 0
17.564 0 0
17.6602 0 0
17.6602 0 0
17.7563 0 0
17.7563 0 0
17.8525 0 0
17.8525 0 0
17.9487 0 0
17.9487 0 0
18.0449 0 0
18.0449 0 0
18.1411 0 0
18.1411 0 0
18.2373 0 0
18.2373 0 0
18.3335 0 0
18.3335 0 0
18.4297 0 0
18.4297 0 0
18.5259 0 0
18.5259 0 0
18.6221 0 0
18.6221 0 0
18.7183 0 0
18.7183 0 0
18.8145 0 0
18.8145 0 0
18.9106 0 0
18.9106 0 0
19.0068 0 0
19.0068 0 0
19.103 0 0
19.103 0 0
19.1992 0 0
19.1992 0 0
19.2954 0 0
19.2954 0 0
19.3916 0 0
19.3916 0 0
19.4878 0 0
19.4878 0 0
19.584 0 0
19.584 0 0
19.6802 0 0
19.6802 0 0
19.7764 0 0
19.7764 0 0
19.8726 0 0
19.8726 0 0
19.9688 0 0
19.9688 0 0
20.0649 0 0
20.0649 0 0
20.1611 0 0
20.1611 0 0
20.2573 0 0
20.2573 0 0
20.3535 0 0
20.3535 0 0
20.4497 0 0
20.4497 0 0
20.5459 0 0
20.5459 0 0
20.6421 0 0
20.6421 0 0
20.7383 0 0
20.7383 0 0
20.8345 0 0
20.8345 0 0
20.9307 0 0
20.9307 0 0
21.0269 0 0
21.0269 0 0
21.123 0 0
21.123 0 0
21.2192 0 0
21.2192 0 0
21.3154 0 0
21.3154 0 0
21.4116 0 0
21.4116 0 0
21.5078 0 0
21.5078 0 0
21.604 0 0
21.604 0 0
21.7002 0 0
21.7002 0 0
21.7964 0 0
21.7964 0 0
21.8926 0 0
21.8926 0 0
21.9888 0 0
21.9888 0 0
22.085 0 0
22.085 0 0
22.1812 0 0
22.1812 0 0
22.2773 0 0
22.2773 0 0
22.3735 0 0
22.3735 0 0
22.4697 0 0
22.4697 0 0
22.5659 0 0
22.5659 0 0
22.6621 0 0
22.6621 0 0
22.7583 0 0
22.7583 0 0
22.8545 0 0
22.8545 0 0
22.9507 0 0
22.9507 0 0
23.0469 0 0
23.0469 0 0
23.1431 0 0
23.1431 0 0
23.2393 0 0
23.2393 0 0
23.3354 0 0
23.3354 0 0
23.4316 0 0
23.4316 0 0
23.5278 0 0
23.5278 0 0
23.624 0 0
23.624 0 0
23.7202 0 0
23.7202 0 0
23.8164 0 0
23.8164 0 0
23.9126 0 0
23.9126 0 0
24.0088 0 0
24.0088 0 0
24.105 0 0
24.105 0 0
24.2012 0 0
24.2012 0 0
24.2974 0 0
24.2974 0 0
24.3936 0 0
24.3936 0 0
24.4897 0 0
24.4897 0 0
24.5859 0 0
24.5859 0 0
24.6821 0 0
24.6821 0 0
24.7783 0 0
24.7783 0 0
24.8745 0 0
24.8745 0 0
24.9707 0 0
24.9707 0 0
25.0669 0 0
25.0669 0 0
25.1631 0 0
25.1631 0 0
25.2593 0 0
25.2593 0 0
25.3555 0 0
25.3555 0 0
25.4517 0 0
25.4517 0 0
25.5479 0 0
25.5479 0 0
25.644 0 0
25.644 0 0
25.7402 0 0
25.7402 0 0
25.8364 0 0
25.8364 0 0
25.9326 0 0
25.9326 0 0
26.0288 0 0
26.0288 0 0
26.125 0 0
26.125 0 0
26.2212 0 0
26.2212 0 0
26.3174 0 0
26.3174 0 0
26.4136 0 0
26.4136 0 0
26.5098 0 0
26.5098 0 0
26.606 0 0
26.606 0 0
26.7021 0 0
26.7021 0 0
26.7983 0 0
26.7983 0 0
26.8945 0 0
26.8945 0 0
26.9907 0 0
26.9907 0 0
27.0869 0 0
27.0869 0 0
27.1831 0 0
27.1831 0 0
27.2793 0 0
27.2793 0 0
27.3755 0 0
27.3755 0 0
27.4717 0 0
27.4717 0 0
27.5679 0 0
27.5679 0 0
27.6641 0 0
27.6641 0 0
27.7603 0 0
27.7603 0 0
27.8564 0 0
27.8564 0 0
27.9526 0 0
27.9526 0 0
28.0488 0 0
28.0488 0 0
28.145 0 0
28.145 0 0
28.2412 0 0
28.2412 0 0
28.3374 0 0
28.3374 0 0
28.4336 0 0
28.4336 0 0
28.5298 0 0
28.5298 0 0
28.626 0 0
28.626 0 0
28.7222 0 0
28.7222 0 0
28.8184 0 0
28.8184 0 0
28.9146 0 0
28.9146 0 0
29.0107 0 0
29.0107 0 0
29.1069 0 0
29.1069 0 0
29.2031 0 0
29.2031 0 0
29.2993 0 0
29.2993 0 0
29.3955 0 0
29.3955 0 0
29.4917 0 0
29.4917 0 0
29.5879 0 0
29.5879 0 0
29.6841 0 0
29.6841 0 0
29.7803 0 0
29.7803 0 0
29.8765 0 0
29.8765 0 0
29.9727 0 0
29.9727 0 0
30.0688 0 0
30.0688 0 0
30.165 0 0
30.165 0 0
30.2612 0 0
30.2612 0 0
30.3574 0 0
30.3574 0 0
30.4536 0 0
30.4536 0 0
30.5498 0 0
30.5498 0 0
30.646 0 0
30.646 0 0
30.7422 0 0
30.7422 0 0
30.8384 0 0
30.8384 0 0
30.9346 0 0
30.9346 0 0
31.0308 0 0
31.0308 0 0
31.127 0 0
31.127 0 0
31.2231 0 0
31.2231 0 0
31.3193 0 0
31.3193 0 0
31.4155 0 0
31.4155 0 0
31.5117 0 0
31.5117 0 0
31.6079 0 0
31.6079 0 0
31.7041 0 0
31.7041 0 0
31.8003 0 0
31.8003 0 0
31.8965 0 0
31.8965 0 0
31.9927 0 0
31.9927 0 0
32.0889 0 0
32.0889 0 0
32.1851 0 0
32.1851 0 0
32.2812 0 0
32.2812 0 0
32.3774 0 0
32.3774 0 0
32.4736 0 0
32.4736 0 0
32.5698 0 0
32.5698 0 0
32.666 0 0
32.666 0 0
32.7622 0 0
32.7622 0 0
32.8584 0 0
32.8584 0 0
32.9546 0 0
32.9546 0 0
33.0508 0 0
33.0508 0 0
33.147 0 0
33.147 0 0
33.2432 0 0
33.2432 0 0
33.3394 0 0
33.3394 0 0
33.4355 0 0
33.4355 0 0
33.5317 0 0
33.5317 0 0
33.6279 0 0
33.6279 0 0
33.7241 0 0
33.7241 0 0
33.8203 0 0
33.8203 0 0
33.9165 0 0
33.9165 0 0
34.0127 0 0
34.0127 0 0
34.1089 0 0
34.1089 0 0
34.2051 0 0
34.2051 0 0
34.3013 0 0
34.3013 0 0
34.3975 0 0
34.3975 0 0
34.4937 0 0
34.4937 0 0
34.5898 0 0
34.5898 0 0
34.686 0 0
34.686 0 0
34.7822 0 0
34.7822 0 0
34.8784 0 0
34.8784 0 0
34.9746 0 0
34.9746 0 0
35.0708 0 0
35.0708 0 0
35.167 0 0
35.167 0 0
35.2632 0 0
35.2632 0 0
35.3594 0 0
35.3594 0 0
35.4556 0 0
35.4556 0 0
35.5518 0 0
35.5518 0 0
35.6479 0 0
35.6479 0 0
35.7441 0 0
35.7441 0 0
35.8403 0 0
35.8403 0 0
35.9365 0 0
35.9365 0 0
36.0327 0 0
36.0327 0 0
36.1289 0 0
36.1289 0 0
36.2251 0 0
36.2251 0 0
36.3213 0 0
36.3213 0 0
36.4175 0 0
36.4175 0 0
36.5137 0 0
36.5137 0 0
36.6099 0 0
36.6099 0 0
36.7061 0 0
36.7061 0 0
36.8022 0 0
36.8022 0 0
36.8984 0 0
36.8984 0 0
36.9946 0 0
36.9946 0 0
37.0908 0 0
37.0908 0 0
37.187 0 0
37.187 0 0
37.2832 0 0
37.2832 0 0
37.3794 0 0
37.3794 0 0
37.4756 0 0
37.4756 0 0
37.5718 0 0
37.5718 0 0
37.668 0 0
37.668 0 0
37.7642 0 0
37.7642 0 0
37.8604 0 0
37.8604 0 0
37.9565 0 0
37.9565 0 0
38.0527 0 0
38.0527 0 0
38.1489 0 0
38.1489 0 0
38.2451 0 0
38.2451 0 0
38.3413 0 0
38.3413 0 0
38.4375 0 0
38.4375 0 0
38.5337 0 0
38.5337 0 0
38.6299 0 0
38.6299 0 0
38.7261 0 0
38.7261 0 0
38.8223 0 0
38.8223 0 0
38.9185 0 0
38.9185 0 0
39.0146 0 0
39.0146 0 0
39.1108 0 0
39.1108 0 0
39.207 0 0
39.207 0 0
39.3032 0 0
39.3032 0 0
39.3994 0 0
39.3994 0 0
39.4956 0 0
39.4956 0 0
39.5918 0 0
39.5918 0 0
39.688 0 0
39.688 0 0
39.7842 0 0
39.7842 0 0
39.8804 0 0
39.8804 0 0
39.9766 0 0
39.9766 0 0
40.0728 0 0
40.0728 0 0
40.1689 0 0
40.1689 0 0
40.2651 0 0
40.2651 0 0
40.3613 0 0
40.3613 0 0
40.4575 0 0
40.4575 0 0
40.5537 0 0
40.5537 0 0
40.6499 0 0
40.6499 0 0
40.7461 0 0
40.7461 0 0
40.8423 0 0
40.8423 0 0
40.9385 0 0
40.9385 0 0
41.0347 0 0
41.0347 0 0
41.1309 0 0
41.1309 0 0
41.2271 0 0
41.2271 0 0
[...]
POINT_DATA 2048
SCALARS solution_0 double 1
LOOKUP_TABLE default
4.9746 4.90721 4.90721 4.85537 4.85537 4.81609 4.81609 4.787 4.787 4.76615 4.76615 4.75196 4.75196 4.74314 4.74314 4.73864 4.73864 4.73759 4.73759 4.73927 4.73927 4.7431 4.7431 4.7486 4.7486 4.75535 4.75535 4.76303 4.76303 4.77135 4.77135 4.78009 4.78009 4.78905 4.78905 4.79807 4.79807 4.80699 4.80699 4.81568 4.81568 4.824 4.824 4.83181 4.83181 4.83895 4.83895 4.84524 4.84524 4.85047 4.85047 4.85438 4.85438 4.85665 4.85665 4.85694 4.85694 4.85482 4.85482 4.84983 4.84983 4.84148 4.84148 4.82925 4.82925 4.81261 4.81261 4.79107 4.79107 4.7642 4.7642 4.73163 4.73163 4.69314 4.69314 4.64862 4.64862 4.59812 4.59812 4.54188 4.54188 4.48028 4.48028 4.4139 4.4139 4.34346 4.34346 4.26981 4.26981 4.19391 4.19391 4.11681 4.11681 4.03963 4.03963 3.9635 3.9635 3.88956 3.88956 3.81895 3.81895 3.75278 3.75278 3.69212 3.69212 3.63801 3.63801 3.59144 3.59144 3.55338 3.55338 3.52475 3.52475 3.50645 3.50645 3.49933 3.49933 3.50426 3.50426 3.52204 3.52204 3.55345 3.55345 3.59923 3.59923 3.66005 3.66005 3.73653 3.73653 3.82916 3.82916 3.93832 3.93832 4.06425 4.06425 4.20699 4.20699 4.3664 4.3664 4.5421 4.5421 4.73343 4.73343 4.93951 4.93951 5.15913 5.15913 5.39081 5.39081 5.63277 5.63277 5.88296 5.88296 6.13904 6.13904 6.39846 6.39846 6.65845 6.65845 6.9161 6.9161 7.16835 7.16835 7.41212 7.41212 7.64433 7.64433 7.86195 7.86195 8.0621 8.0621 8.24207 8.24207 8.39942 8.39942 8.532 8.532 8.63802 8.63802 8.71607 8.71607 8.76517 8.76517 8.78476 8.78476 8.77473 8.77473 8.73542 8.73542 8.66757 8.66757 8.57236 8.57236 8.45131 8.45131 8.30627 8.30627 8.13938 8.13938 7.95299 7.95299 7.74964 7.74964 7.53196 7.53196 7.30268 7.30268 7.06448 7.06448 6.82003 6.82003 6.57189 6.57189 6.32249 6.32249 6.07409 6.07409 5.82875 5.82875 5.58831 5.58831 5.35439 5.35439 5.12835 5.12835 4.91132 4.91132 4.70419 4.70419 4.50763 4.50763 4.32208 4.32208 4.1478 4.1478 3.98486 3.98486 3.83316 3.83316 3.69249 3.69249 3.56251 3.56251 3.44277 3.44277 3.33278 3.33278 3.23198 3.23198 3.13975 3.13975 3.05549 3.05549 2.97856 2.97856 2.90834 2.90834 2.84422 2.84422 2.78562 2.78562 2.73197 2.73197 2.68275 2.68275 2.63747 2.63747 2.59567 2.59567 2.55694 2.55694 2.52091 2.52091 2.48724 2.48724 2.45563 2.45563 2.42581 2.42581 2.39753 2.39753 2.3706 2.3706 2.34484 2.34484 2.32008 2.32008 2.29619 2.29619 2.27306 2.27306 2.25059 2.25059 2.2287 2.2287 2.20731 2.20731 2.18637 2.18637 2.16582 2.16582 2.14563 2.14563 2.12575 2.12575 2.10617 2.10617 2.08686 2.08686 2.0678 2.0678 2.04896 2.04896 2.03035 2.03035 2.01194 2.01194 1.99374 1.99374 1.97572 1.97572 1.95789 1.95789 1.94024 1.94024 1.92276 1.92276 1.90545 1.90545 1.88831 1.88831 1.87134 1.87134 1.85453 1.85453 1.83788 1.83788 1.82138 1.82138 1.80504 1.80504 1.78885 1.78885 1.77282 1.77282 1.75693 1.75693 1.7412 1.7412 1.72561 1.72561 1.71016 1.71016 1.69486 1.69486 1.6797 1.6797 1.66468 1.66468 1.6498 1.6498 1.63506 1.63506 1.62045 1.62045 1.60598 1.60598 1.59164 1.59164 1.57743 1.57743 1.56336 1.56336 1.54941 1.54941 1.53559 1.53559 1.5219 1.5219 1.50833 1.50833 1.49489 1.49489 1.48157 1.48157 1.46837 1.46837 1.45529 1.45529 1.44233 1.44233 1.42949 1.42949 1.41676 1.41676 1.40415 1.40415 1.39165 1.39165 1.37927 1.37927 1.36699 1.36699 1.35483 1.35483 1.34277 1.34277 1.33083 1.33083 1.31899 1.31899 1.30725 1.30725 1.29562 1.29562 1.2841 1.2841 1.27267 1.27267 1.26135 1.26135 1.25013 1.25013 1.23901 1.23901 1.22798 1.22798 1.21705 1.21705 1.20622 1.20622 1.19549 1.19549 1.18484 1.18484 1.17429 1.17429 1.16383 1.16383 1.15347 1.15347 1.14319 1.14319 1.133 1.133 1.12291 1.12291 1.11289 1.11289 1.10297 1.10297 1.09313 1.09313 1.08338 1.08338 1.0737 1.0737 1.06412 1.06412 1.05461 1.05461 1.04518 1.04518 1.03584 1.03584 1.02658 1.02658 1.01739 1.01739 1.00828 1.00828 0.99925 0.99925 0.990295 0.990295 0.981415 0.981415 0.972611 0.972611 0.96388 0.96388 0.955223 0.955223 0.946638 0.946638 0.938125 0.938125 0.929682 0.929682 0.921311 0.921311 0.913008 0.913008 0.904775 0.904775 0.89661 0.89661 0.888512 0.888512 0.880481 0.880481 0.872517 0.872517 0.864618 0.864618 0.856783 0.856783 0.849013 0.849013 0.841307 0.841307 0.833663 0.833663 0.826082 0.826082 0.818562 0.818562 0.811103 0.811103 0.803705 0.803705 0.796367 0.796367 0.789087 0.789087 0.781867 0.781867 0.774705 0.774705 0.7676 0.7676 0.760552 0.760552 0.753561 0.753561 0.746625 0.746625 0.739745 0.739745 0.73292 0.73292 0.726149 0.726149 0.719431 0.719431 0.712767 0.712767 0.706155 0.706155 0.699596 0.699596 0.693088 0.693088 0.686632 0.686632 0.680226 0.680226 0.673871 0.673871 0.667565 0.667565 0.661308 0.661308 0.6551 0.6551 0.648941 0.648941 0.642829 0.642829 0.636765 0.636765 0.630748 0.630748 0.624777 0.624777 0.618853 0.618853 0.612974 0.612974 0.60714 0.60714 0.601351 0.601351 0.595607 0.595607 0.589906 0.589906 0.584249 0.584249 0.578635 0.578635 0.573064 0.573064 0.567535 0.567535 0.562049 0.562049 0.556603 0.556603 0.551199 0.551199 0.545836 0.545836 0.540514 0.540514 0.535231 0.535231 0.529988 0.529988 0.524784 0.524784 0.51962 0.51962 0.514494 0.514494 0.509406 0.509406 0.504357 0.504357 0.499344 0.499344 0.49437 0.49437 0.489432 0.489432 0.48453 0.48453 0.479665 0.479665 0.474836 0.474836 0.470043 0.470043 0.465284 0.465284 0.460561 0.460561 0.455873 0.455873 0.451219 0.451219 0.446598 0.446598 0.442012 0.442012 0.437459 0.437459 0.432939 0.432939 0.428453 0.428453 0.423998 0.423998 0.419576 0.419576 0.415187 0.415187 0.410828 0.410828 0.406502 0.406502 0.402206 0.402206 0.397942 0.397942 0.393708 0.393708 0.389504 0.389504 0.385331 0.385331 0.381187 0.381187 0.377073 0.377073 0.372989 0.372989 0.368933 0.368933 0.364907 0.364907 0.360909 0.360909 0.356939 0.356939 0.352998 0.352998 0.349084 0.349084 0.345198 0.345198 0.34134 0.34134 0.337508 0.337508 0.333704 0.333704 0.329926 0.329926 0.326175 0.326175 0.32245 0.32245 0.318751 0.318751 0.315079 0.315079 0.311431 0.311431 0.307809 0.307809 0.304213 0.304213 0.300641 0.300641 0.297094 0.297094 0.293572 0.293572 0.290074 0.290074 0.2866 0.2866 0.28315 0.28315 0.279724 0.279724 0.276322 0.276322 0.272943 0.272943 0.269587 0.269587 0.266254 0.266254 0.262944 0.262944 0.259657 0.259657 0.256392 0.256392 0.25315 0.25315 0.249929 0.249929 0.246731 0.246731 0.243554 0.243554 0.240399 0.240399 0.237265 0.237265 0.234152 0.234152 0.231061 0.231061 0.22799 0.22799 0.22494 0.22494 0.221911 0.221911 0.218902 0.218902 0.215913 0.215913 0.212944 0.212944 0.209996 0.209996 0.207066 0.207066 0.204157 0.204157 0.201267 0.201267 0.198396 0.198396 0.195545 0.195545 0.192712 0.192712 0.189899 0.189899 0.187104 0.187104 0.184327 0.184327 0.181569 0.181569 0.178829 0.178829 0.176107 0.176107 0.173404 0.173404 0.170718 0.170718 0.16805 0.16805 0.165399 0.165399 0.162766 0.162766 0.16015 0.16015 0.157551 0.157551 0.15497 0.15497 0.152405 0.152405 0.149857 0.149857 0.147326 0.147326 0.144811 0.144811 0.142312 0.142312 0.13983 0.13983 0.137364 0.137364 0.134914 0.134914 0.13248 0.13248 0.130062 0.130062 0.127659 0.127659 0.125272 0.125272 0.122901 0.122901 0.120544 0.120544 0.118203 0.118203 0.115877 0.115877 0.113566 0.113566 0.11127 0.11127 0.108988 0.108988 0.106722 0.106722 0.104469 0.104469 0.102231 0.102231 0.100008 0.100008 0.0977987 0.0977987 0.0956035 0.0956035 0.0934223 0.0934223 0.0912551 0.0912551 0.0891016 0.0891016 0.0869619 0.0869619 0.0848357 0.0848357 0.082723 0.082723 0.0806238 0.0806238 0.0785379 0.0785379 0.0764651 0.0764651 0.0744055 0.0744055 0.0723589 0.0723589 0.0703253 0.0703253 0.0683044 0.0683044 0.0662963 0.0662963 0.0643009 0.0643009 0.062318 0.062318 0.0603476 0.0603476 0.0583895 0.0583895 0.0564438 0.0564438 0.0545102 0.0545102 0.0525888 0.0525888 0.0506794 0.0506794 0.0487819 0.0487819 0.0468963 0.0468963 0.0450225 0.0450225 0.0431604 0.0431604 0.0413098 0.0413098 0.0394708 0.0394708 0.0376433 0.0376433 0.0358271 0.0358271 0.0340222 0.0340222 0.0322285 0.0322285 0.0304459 0.0304459 0.0286743 0.0286743 0.0269138 0.0269138 0.0251641 0.0251641 0.0234253 0.0234253 0.0216972 0.0216972 0.0199797 0.0199797 0.0182729 0.0182729 0.0165766 0.0165766 0.0148907 0.0148907 0.0132152 0.0132152 0.01155 0.01155 0.00989505 0.00989505 0.00825025 0.00825025 0.00661555 0.00661555 0.00499087 0.00499087 0.00337615 0.00337615 0.00177131 0.00177131 0.000176294 0.000176294 -0.00140897 -0.00140897 -0.00298455 -0.00298455 -0.00455051 -0.00455051 -0.00610692 -0.00610692 -0.00765384 -0.00765384 -0.00919133 -0.00919133 -0.0107195 -0.0107195 -0.0122383 -0.0122383 -0.0137479 -0.0137479 -0.0152483 -0.0152483 -0.0167396 -0.0167396 -0.0182219 -0.0182219 -0.0196952 -0.0196952 -0.0211595 -0.0211595 -0.022615 -0.022615 -0.0240617 -0.0240617 -0.0254996 -0.0254996 -0.0269288 -0.0269288 -0.0283494 -0.0283494 -0.0297614 -0.0297614 -0.0311649 -0.0311649 -0.03256 -0.03256 -0.0339466 -0.0339466 -0.0353249 -0.0353249 -0.0366949 -0.0366949 -0.0380566 -0.0380566 -0.0394102 -0.0394102 -0.0407556 -0.0407556 -0.042093 -0.042093 -0.0434223 -0.0434223 -0.0447436 -0.0447436 -0.0460571 -0.0460571 -0.0473626 -0.0473626 -0.0486604 -0.0486604 -0.0499503 -0.0499503 -0.0512326 -0.0512326 -0.0525072 -0.0525072 -0.0537742 -0.0537742 -0.0550336 -0.0550336 -0.0562855 -0.0562855 -0.0575299 -0.0575299 -0.0587669 -0.0587669 -0.0599965 -0.0599965 -0.0612188 -0.0612188 -0.0624339 -0.0624339 -0.0636417 -0.0636417 -0.0648423 -0.0648423 -0.0660358 -0.0660358 -0.0672222 -0.0672222 -0.0684015 -0.0684015 -0.0695739 -0.0695739 -0.0707392 -0.0707392 -0.0718977 -0.0718977 -0.0730493 -0.0730493 -0.0741941 -0.0741941 -0.0753321 -0.0753321 -0.0764634 -0.0764634 -0.077588 -0.077588 -0.0787059 -0.0787059 -0.0798172 -0.0798172 -0.0809219 -0.0809219 -0.0820201 -0.0820201 -0.0831119 -0.0831119 -0.0841972 -0.0841972 -0.085276 -0.085276 -0.0863486 -0.0863486 -0.0874147 -0.0874147 -0.0884747 -0.0884747 -0.0895283 -0.0895283 -0.0905758 -0.0905758 -0.0916171 -0.0916171 -0.0926522 -0.0926522 -0.0936813 -0.0936813 -0.0947043 -0.0947043 -0.0957214 -0.0957214 -0.0967324 -0.0967324 -0.0977375 -0.0977375 -0.0987367 -0.0987367 -0.09973 -0.09973 -0.100717 -0.100717 -0.101699 -0.101699 -0.102675 -0.102675 -0.103645 -0.103645 -0.10461 -0.10461 -0.105569 -0.105569 -0.106522 -0.106522 -0.10747 -0.10747 -0.108412 -0.108412 -0.109348 -0.109348 -0.11028 -0.11028 -0.111205 -0.111205 -0.112126 -0.112126 -0.11304 -0.11304 -0.11395 -0.11395 -0.114854 -0.114854 -0.115753 -0.115753 -0.116647 -0.116647 -0.117535 -0.117535 -0.118419 -0.118419 -0.119297 -0.119297 -0.12017 -0.12017 -0.121038 -0.121038 -0.1219 -0.1219 -0.122758 -0.122758 -0.123611 -0.123611 -0.124459 -0.124459 -0.125302 -0.125302 -0.12614 -0.12614 -0.126973 -0.126973 -0.127801 -0.127801 -0.128625 -0.128625 -0.129443 -0.129443 -0.130257 -0.130257 -0.131066 -0.131066 -0.13187 -0.13187 -0.13267 -0.13267 -0.133465 -0.133465 -0.134256 -0.134256 -0.135042 -0.135042 -0.135823 -0.135823 -0.136599 -0.136599 -0.137372 -0.137372 -0.138139 -0.138139 -0.138903 -0.138903 -0.139661 -0.139661 -0.140416 -0.140416 -0.141166 -0.141166 -0.141911 -0.141911 -0.142653 -0.142653 -0.14339 -0.14339 -0.144122 -0.144122 -0.144851 -0.144851 -0.145575 -0.145575 -0.146295 -0.146295 -0.147011 -0.147011 -0.147722 -0.147722 -0.14843 -0.14843 -0.149133 -0.149133 -0.149833 -0.149833 -0.150528 -0.150528 -0.151219 -0.151219 -0.151906 -0.151906 -0.152589 -0.152589 -0.153269 -0.153269 -0.153944 -0.153944 -0.154615 -0.154615 -0.155283 -0.155283 -0.155946 -0.155946 -0.156606 -0.156606 -0.157262 -0.157262 -0.157914 -0.157914 -0.158562 -0.158562 -0.159206 -0.159206 -0.159847 -0.159847 -0.160484 -0.160484 -0.161117 -0.161117 -0.161747 -0.161747 -0.162373 -0.162373 -0.162995 -0.162995 -0.163614 -0.163614 -0.164229 -0.164229 -0.164841 -0.164841 -0.165448 -0.165448 -0.166053 -0.166053 -0.166654 -0.166654 -0.167251 -0.167251 -0.167845 -0.167845 -0.168435 -0.168435 -0.169022 -0.169022 -0.169606 -0.169606 -0.170186 -0.170186 -0.170763 -0.170763 -0.171336 -0.171336 -0.171906 -0.171906 -0.172473 -0.172473 -0.173036 -0.173036 -0.173597 -0.173597 -0.174153 -0.174153 -0.174707 -0.174707 -0.175257 -0.175257 -0.175805 -0.175805 -0.176348 -0.176348 -0.176889 -0.176889 -0.177427 -0.177427 -0.177961 -0.177961 -0.178493 -0.178493 -0.179021 -0.179021 -0.179546 -0.179546 -0.180068 -0.180068 -0.180587 -0.180587 -0.181103 -0.181103 -0.181616 -0.181616 -0.182126 -0.182126 -0.182633 -0.182633 -0.183137 -0.183137 -0.183638 -0.183638 -0.184136 -0.184136 -0.184631 -0.184631 -0.185123 -0.185123 -0.185612 -0.185612 -0.186099 -0.186099 -0.186582 -0.186582 -0.187063 -0.187063 -0.187541 -0.187541 -0.188016 -0.188016 -0.188488 -0.188488 -0.188958 -0.188958 -0.189424 -0.189424 -0.189888 -0.189888 -0.19035 -0.19035 -0.190808 -0.190808 -0.191264 -0.191264 -0.191717 -0.191717 -0.192167 -0.192167 -0.192615 -0.192615 -0.19306 -0.19306 -0.193502 -0.193502 -0.193942 -0.193942 -0.19438 -0.19438 -0.194814 -0.194814 -0.195246 -0.195246 -0.195676 -0.195676 -0.196103 -0.196103 -0.196527 -0.196527 -0.196949 -0.196949 -0.197368 -0.197368 -0.197785 -0.197785 -0.198199 -0.198199 -0.198611 -0.198611 -0.199021 -0.199021 -0.199427 -0.199427 -0.199832 -0.199832 -0.200234 -0.200234 -0.200634 -0.200634 -0.201031 -0.201031 -0.201426 -0.201426 -0.201819 -0.201819 -0.202209 -0.202209 -0.202597 -0.202597 -0.202982 -0.202982 -0.203365 -0.203365 -0.203746 -0.203746 -0.204125 -0.204125 -0.204501 -0.204501 -0.204875 -0.204875 -0.205247 -0.205247 -0.205617 -0.205617 -0.205984 -0.205984 -0.206349 -0.206349 -0.206712 -0.206712 -0.207073 -0.207073 -0.207431 -0.207431 -0.207788 -0.207788 -0.208142 -0.208142 -0.208494 -0.208494 -0.208844 -0.208844 -0.209191 -0.209191 -0.209537 -0.209537 -0.209881 -0.209881 -0.210222 -0.210222 -0.210561 -0.210561 -0.210899 -0.210899 -0.211234 -0.211234 -0.211567 -0.211567 -0.211898 -0.211898 -0.212227 -0.212227 -0.212554 -0.212554 -0.212879 -0.212879 -0.213202 -0.213202 -0.213523 -0.213523 -0.213842 -0.213842 -0.214159 -0.214159 -0.214475 -0.214475 -0.214788 -0.214788 -0.215099 -0.215099 -0.215408 -0.215408 -0.215716 -0.215716 -0.216021 -0.216021 -0.216325 -0.216325 -0.216627 -0.216627 -0.216926 -0.216926 -0.217224 -0.217224 -0.21752 -0.21752 -0.217815 -0.217815 -0.218107 -0.218107 -0.218398 -0.218398 -0.218686 -0.218686 -0.218973 -0.218973 -0.219258 -0.219258 -0.219542 -0.219542 -0.219823 -0.219823 -0.220103 -0.220103 -0.220381 -0.220381 -0.220657 -0.220657 -0.220932 -0.220932 -0.221205 -0.221205 -0.221476 -0.221476 -0.221745 -0.221745 -0.222013 -0.222013 -0.222279 -0.222279 -0.222543 -0.222543 -0.222805 -0.222805 -0.223066 -0.223066 -0.223325 -0.223325 -0.223583 -0.223583 -0.223839 -0.223839 -0.224093 -0.224093 -0.224345 -0.224345 -0.224596 -0.224596 -0.224846 -0.224846 -0.225093 -0.225093 -0.22534 -0.22534 -0.225584 -0.225584 -0.225827 -0.225827 -0.226068 -0.226068 -0.226308 -0.226308 -0.226546 -0.226546 -0.226783 -0.226783 -0.227018 -0.227018 -0.227252 -0.227252 -0.227484 -0.227484 -0.227714 -0.227714 -0.227943 -0.227943 -0.228171 -0.228171 -0.228397 -0.228397 -0.228621 -0.228621 -0.228844 -0.228844 -0.229066 -0.229066 -0.229286 -0.229286 -0.229504 -0.229504 -0.229722 -0.229722 -0.229937 -0.229937 -0.230152 -0.230152 -0.230364 -0.230364 -0.230576 -0.230576 -0.230786 -0.230786 -0.230994 -0.230994 -0.231201 -0.231201 -0.231407 -0.231407 -0.231612 -0.231612 -0.231814 -0.231814 -0.232016 -0.232016 -0.232216 -0.232216 -0.232415 -0.232415 -0.232613 -0.232613 -0.232809 -0.232809 -0.233004 -0.233004 -0.233197 -0.233197 -0.233389 -0.233389 -0.23358 -0.23358 -0.233769 -0.233769 -0.233958 -0.233958 -0.234144 -0.234144 -0.23433 -0.23433 -0.234514 -0.234514 -0.234697 -0.234697 -0.234879 -0.234879 -0.235059 -0.235059 -0.235239 -0.235239 -0.235417 -0.235417 -0.235593 -0.235593 -0.235769 -0.235769 -0.235943 -0.235943 -0.236116 -0.236116 -0.236287 -0.236287 -0.236458 -0.236458 -0.236627 -0.236627 -0.236795 -0.236795 -0.236962 -0.236962 -0.237128 -0.237128 -0.237292 -0.237292 -0.237455 -0.237455 -0.237617 -0.237617 -0.237778 -0.237778 -0.237938 -0.237938 -0.238096 -0.238096 -0.238254 -0.238254 -0.23841 -0.23841 -0.238565 -0.238565 -0.238719 -0.238719 -0.238872 -0.238872 -0.239024 -0.239024 -0.239174 -0.239174 -0.239324 -0.239324 -0.239472 -0.239472 -0.239619 -0.239619 -0.239765 -0.239765 -0.23991 -0.23991 -0.240054 -0.240054 -0.240197 -0.240197 -0.240339 -0.240339 -0.240479 -0.240479 -0.240619 -0.240619 -0.240757 -0.240757 -0.240895 -0.240895 -0.241031 -0.241031 -0.241167 -0.241167 -0.241301 -0.241301 -0.241434 -0.241434 -0.241566 -0.241566 -0.241697 -0.241697 -0.241828 -0.241828 -0.241957 -0.241957 -0.242085 -0.242085 -0.242212 -0.242212 -0.242338 -0.242338 -0.242463 -0.242463 -0.242587 -0.242587 -0.24271 -0.24271 -0.242832 -0.242832 -0.242954 -0.242954 -0.243074 -0.243074 -0.243193 -0.243193 -0.243311 -0.243311 -0.243428 -0.243428 -0.243545 -0.243545 -0.24366 -0.24366 -0.243774 -0.243774 -0.243888 -0.243888 -0.244 -0.244 -0.244112 -0.244112 -0.244222 -0.244222 -0.244332 -0.244332 -0.244441 -0.244441 -0.244549 -0.244549 -0.244656 -0.244656 -0.244762 -0.244762 -0.244867 -0.244867 -0.244971 -0.244971 -0.245074 -0.245074 -0.245177 -0.245177 -0.245278 -0.245278 -0.245379 -0.245379 -0.245479 -0.245479 -0.245577 -0.245577 -0.245675 -0.245675 -0.245772 -0.245772 -0.245869 -0.245869 -0.245964 -0.245964 -0.246058 -0.246058 -0.246152 -0.246152 -0.246245 -0.246245 -0.246336 -0.246336 -0.246427 -0.246427 -0.246517 -0.246517 -0.246606 -0.246606 -0.246693 -0.246693 -0.24678 -0.24678 -0.246865 -0.246865 -0.246949 -0.246949 -0.247032 -0.247032 -0.247113 -0.247113 -0.247192 -0.247192 -0.247269 -0.247269 -0.247343 -0.247343 -0.247415 -0.247415 -0.247483 -0.247483 -0.247548 -0.247548 -0.247608 -0.247608 -0.247662 -0.247662 -0.24771 -0.24771 -0.24775 -0.24775 -0.247781 -0.247781 -0.247801 -0.247801 -0.247809 -0.247809 -0.247803 -0.247803 -0.24778 -0.24778 -0.247737 -0.247737 -0.247671 -0.247671 -0.247581 -0.247581 -0.247461 -0.247461 -0.247309 -0.247309 -0.24712 -0.24712 -0.246891 -0.246891 -0.246617 -0.246617 -0.246295 -0.246295 -0.24592 -0.24592 -0.245488 -0.245488 -0.244995 -0.244995 -0.244439 -0.244439 -0.243815 -0.243815 -0.243122 -0.243122 -0.242358 -0.242358 -0.24152 -0.24152 -0.24061 -0.24061 -0.239627 -0.239627 -0.238571 -0.238571 -0.237445 -0.237445 -0.23625 -0.23625 -0.23499 -0.23499 -0.233668 -0.233668 -0.232288 -0.232288 -0.230854 -0.230854 -0.22937 -0.22937 -0.22784 -0.22784 -0.226268 -0.226268 -0.224659 -0.224659 -0.223015 -0.223015 -0.221341 -0.221341 -0.219638 -0.219638 -0.217909 -0.217909 -0.216155 -0.216155 -0.214379 -0.214379 -0.212582 -0.212582 -0.210763 -0.210763 -0.208924 -0.208924 -0.207065 -0.207065 -0.205184 -0.205184 -0.203284 -0.203284 -0.201361 -0.201361 -0.199418 -0.199418 -0.197453 -0.197453 -0.195465 -0.195465 -0.193454 -0.193454 -0.19142 -0.19142 -0.189362 -0.189362 -0.187279 -0.187279 -0.185172 -0.185172 -0.18304 -0.18304 -0.180882 -0.180882 -0.178698 -0.178698 -0.176488 -0.176488 -0.174251 -0.174251 -0.171987 -0.171987 -0.169696 -0.169696 -0.167377 -0.167377 -0.16503 -0.16503 -0.162654 -0.162654 -0.16025 -0.16025 -0.157818 -0.157818 -0.155356 -0.155356 -0.152864 -0.152864 -0.150343 -0.150343 -0.147793 -0.147793 -0.145211 -0.145211 -0.1426 -0.1426 -0.139958 -0.139958 -0.137285 -0.137285 -0.13458 -0.13458 -0.131845 -0.131845 -0.129077 -0.129077 -0.126278 -0.126278 -0.123447 
SCALARS solution_1 double 1
LOOKUP_TABLE default