# vtk DataFile Version 3.0
#This file was generated by the deal.II library on 2020/9/1 at 15:07:48
ASCII
DATASET UNSTRUCTURED_GRID

POINTS 2048 double
1.5 0 0
1.59619 0 0
1.59619 0 0
1.69238 0 0
1.69238 0 0
1.78857 0 0
1.78857 0 0
1.88477 0 0
1.88477 0 0
1.98096 0 0
1.98096 0 0
2.07715 0 0
2.07715 0 0
2.17334 0 0
2.17334 0 0
2.26953 0 0
2.26953 0 0
2.36572 0 0
2.36572 0 0
2.46191 0 0
2.46191 0 0
2.55811 0 0
2.55811 0 0
2.6543 0 0
2.6543 0 0
2.75049 0 0
2.75049 0 0
2.84668 0 0
2.84668 0 0
2.94287 0 0
2.94287 0 0
3.03906 0 0
3.03906 0 0
3.13525 0 0
3.13525 0 0
3.23145 0 0
3.23145 0 0
3.32764 0 0
3.32764 0 0
3.42383 0 0
3.42383 0 0
3.52002 0 0
3.52002 0 0
3.61621 0 0
3.61621 0 0
3.7124 0 0
3.7124 0 0
3.80859 0 0
3.80859 0 0
3.90479 0 0
3.90479 0 0
4.00098 0 0
4.00098 0 0
4.09717 0 0
4.09717 0 0
4.19336 0 0
4.19336 0 0
4.28955 0 0
4.28955 0 0
4.38574 0 0
4.38574 0 0
4.48193 0 0
4.48193 0 0
4.57812 0 0
4.57812 0 0
4.67432 0 0
4.67432 0 0
4.77051 0 0
4.77051 0 0
4.8667 0 0
4.8667 0 0
4.96289 0 0
4.96289 0 0
5.05908 0 0
5.05908 0 0
5.15527 0 0
5.15527 0 0
5.25146 0 0
5.25146 0 0
5.34766 0 0
5.34766 0 0
5.44385 0 0
5.44385 0 0
5.54004 0 0
5.54004 0 0
5.63623 0 0
5.63623 0 0
5.73242 0 0
5.73242 0 0
5.82861 0 0
5.82861 0 0
5.9248 0 0
5.9248 0 0
6.021 0 0
6.021 0 0
6.11719 0 0
6.11719 0 0
6.21338 0 0
6.21338 0 0
6.30957 0 0
6.30957 0 0
6.40576 0 0
6.40576 0 0
6.50195 0 0
6.50195 0 0
6.59814 0 0
6.59814 0 0
6.69434 0 0
6.69434 0 0
6.79053 0 0
6.79053 0 0
6.88672 0 0
6.88672 0 0
6.98291 0 0
6.98291 0 0
7.0791 0 0
7.0791 0 0
7.17529 0 0
7.17529 0 0
7.27148 0 0
7.27148 0 0
7.36768 0 0
7.36768 0 0
7.46387 0 0
7.46387 0 0
7.56006 0 0
7.56006 0 0
7.65625 0 0
7.65625 0 0
7.75244 0 0
7.75244 0 0
7.84863 0 0
7.84863 0 0
7.94482 0 0
7.94482 0 0
8.04102 0 0
8.04102 0 0
8.13721 0 0
8.13721 0 0
8.2334 0 0
8.2334 0 0
8.32959 0 0
8.32959 0 0
8.42578 0 0
8.42578 0 0
8.52197 0 0
8.52197 0 0
8.61816 0 0
8.61816 0 0
8.71436 0 0
8.71436 0 0
8.81055 0 0
8.81055 0 0
8.90674 0 0
8.90674 0 0
9.00293 0 0
9.00293 0 0
9.09912 0 0
9.09912 0 0
9.19531 0 0
9.19531 0 0
9.2915 0 0
9.2915 0 0
9.3877 0 0
9.3877 0 0
9.48389 0 0
9.48389 0 0
9.58008 0 0
9.58008 0 0
9.67627 0 0
9.67627 0 0
9.77246 0 0
9.77246 0 0
9.86865 0 0
9.86865 0 0
9.96484 0 0
9.96484 0 0
10.061 0 0
10.061 0 0
10.1572 0 0
10.1572 0 0
10.2534 0 0
10.2534 0 0
10.3496 0 0
10.3496 0 0
10.4458 0 0
10.4458 0 0
10.542 0 0
10.542 0 0
10.6382 0 0
10.6382 0 0
10.7344 0 0
10.7344 0 0
10.8306 0 0
10.8306 0 0
10.9268 0 0
10.9268 0 0
11.0229 0 0
11.0229 0 0
11.1191 0 0
11.1191 0 0
11.2153 0 0
11.2153 0 0
11.3115 0 0
11.3115 0 0
11.4077 0 0
11.4077 0 0
11.5039 0 0
11.5039 0 0
11.6001 0 0
11.6001 0 0
11.6963 0 0
11.6963 0 0
11.7925 0 0
11.7925 0 0
11.8887 0 0
11.8887 0 0
11.9849 0 0
11.9849 0 0
12.0811 0 0
12.0811 0 0
12.1772 0 0
12.1772 0 0
12.2734 0 0
12.2734 0 0
12.3696 0 0
12.3696 0 0
12.4658 0 0
12.4658 0 0
12.562 0 0
12.562 0 0
12.6582 0 0
12.6582 0 0
12.7544 0 0
12.7544 0 0
12.8506 0 0
12.8506 0 0
12.9468 0 0
12.9468 0 0
13.043 0 0
13.043 0 0
13.1392 0 0
13.1392 0 0
13.2354 0 0
13.2354 0 0
13.3315 0 0
13.3315 0 0
13.4277 0 0
13.4277 0 0
13.5239 0 0
13.5239 0 0
13.6201 0 0
13.6201 0 0
13.7163 0 0
13.7163 0 0
13.8125 0 0
13.8125 0 0
13.9087 0 0
13.9087 0 0
14.0049 0 0
14.0049 0 0
14.1011 0 0
14.1011 0 0
14.1973 0 0
14.1973 0 0
14.2935 0 0
14.2935 0 0
14.3896 0 0
14.3896 0 0
14.4858 0 0
14.4858 0 0
14.582 0 0
14.582 0 0
14.6782 0 0
14.6782 0 0
14.7744 0 0
14.7744 0 0
14.8706 0 0
14.8706 0 0
14.9668 0 0
14.9668 0 0
15.063 0 0
15.063 0 0
15.1592 0 0
15.1592 0 0
15.2554 0 0
15.2554 0 0
15.3516 0 0
15.3516 0 0
15.4478 0 0
15.4478 0 0
15.5439 0 0
15.5439 0 0
15.6401 0 0
15.6401 0 0
15.7363 0 0
15.7363 0 0
15.8325 0 0
15.8325 0 0
15.9287 0 0
15.9287 0 0
16.0249 0 0
16.0249 0 0
16.1211 0 0
16.1211 0 0
16.2173 0 0
16.2173 0 0
16.3135 0 0
16.3135 0 0
16.4097 0 0
16.4097 0 0
16.5059 0 0
16.5059 0 0
16.6021 0 0
16.6021 0 0
16.6982 0 0
16.6982 0 0
16.7944 0 0
16.7944 0 0
16.8906 0 0
16.8906 0 0
16.9868 0 0
16.9868 0 0
17.083 0 0
17.083 0 0
17.1792 0 0
17.1792 0 0
17.2754 0 0
17.2754 0 0
17.3716 0 0
17.3716 0 0
17.4678 0 0
17.4678 0 0
17.564 0 0
17.564 0 0
17.6602 0 0
17.6602 0 0
17.7563 0 0
17.7563 0 0
17.8525 0 0
17.8525 0 0
17.9487 0 0
17.9487 0 0
18.0449 0 0
18.0449 0 0
18.1411 0 0
18.1411 0 0
18.2373 0 0
18.2373 0 0
18.3335 0 0
18.3335 0 0
18.4297 0 0
18.4297 0 0
18.5259 0 0
18.5259 0 0
18.6221 0 0
18.6221 0 0
18.7183 0 0
18.7183 0 0
18.8145 0 0
18.8145 0 0
18.9106 0 0
18.9106 0 0
19.0068 0 0
19.0068 0 0
19.103 0 0
19.103 0 0
19.1992 0 0
19.1992 0 0
19.2954 0 0
19.2954 0 0
19.3916 0 0
19.3916 0 0
19.4878 0 0
19.4878 0 0
19.584 0 0
19.584 0 0
19.6802 0 0
19.6802 0 0
19.7764 0 0
19.7764 0 0
19.8726 0 0
19.8726 0 0
19.9688 0 0
19.9688 0 0
20.0649 0 0
20.0649 0 0
20.1611 0 0
20.1611 0 0
20.2573 0 0
20.2573 0 0
20.3535 0 0
20.3535 0 0
20.4497 0 0
20.4497 0 0
20.5459 0 0
20.5459 0 0
20.6421 0 0
20.6421 0 0
20.7383 0 0
20.7383 0 0
20.8345 0 0
20.8345 0 0
20.9307 0 0
20.9307 0 0
21.0269 0 0
21.0269 0 0
21.123 0 0
21.123 0 0
21.2192 0 0
21.2192 0 0
21.3154 0 0
21.3154 0 0
21.4116 0 0
21.4116 0 0
21.5078 0 0
21.5078 0 0
21.604 0 0
21.604 0 0
21.7002 0 0
21.7002 0 0
21.7964 0 0
21.7964 0 0
21.8926 0 0
21.8926 0 0
21.9888 0 0
21.9888 0 0
22.085 0 0
22.085 0 0
22.1812 0 0
22.1812 0 0
22.2773 0 0
22.2773 0 0
22.3735 0 0
22.3735 0 0
22.4697 0 0
22.4697 0 0
22.5659 0 0
22.5659 0 0
22.6621 0 0
22.6621 0 0
22.7583 0 0
22.7583 0 0
22.8545 0 0
22.8545 0 0
22.9507 0 0
22.9507 0 0
23.0469 0 0
23.0469 0 0
23.1431 0 0
23.1431 0 0
23.2393 0 0
23.2393 0 0
23.3354 0 0
23.3354 0 0
23.4316 0 0
23.4316 0 0
23.5278 0 0
23.5278 0 0
23.624 0 0
23.624 0 0
23.7202 0 0
23.7202 0 0
23.8164 0 0
23.8164 0 0
23.9126 0 0
23.9126 0 0
24.0088 0 0
24.0088 0 0
24.105 0 0
24.105 0 0
24.2012 0 0
24.2012 0 0
24.2974 0 0
24.2974 0 0
24.3936 0 0
24.3936 0 0
24.4897 0 0
24.4897 0 0
24.5859 0 0
24.5859 0 0
24.6821 0 0
24.6821 0 0
24.7783 0 0
24.7783 0 0
24.8745 0 0
24.8745 0 0
24.9707 0 0
24.9707 0 0
25.0669 0 0
25.0669 0 0
25.1631 0 0
25.1631 0 0
25.2593 0 0
25.2593 0 0
25.3555 0 0
25.3555 0 0
25.4517 0 0
25.4517 0 0
25.5479 0 0
25.5479 0 0
25.644 0 0
25.644 0 0
25.7402 0 0
25.7402 0 0
25.8364 0 0
25.8364 0 0
25.9326 0 0
25.9326 0 0
26.0288 0 0
26.0288 0 0
26.125 0 0
26.125 0 0
26.2212 0 0
26.2212 0 0
26.3174 0 0
26.3174 0 0
26.4136 0 0
26.4136 0 0
26.5098 0 0
26.5098 0 0
26.606 0 0
26.606 0 0
26.7021 0 0
26.7021 0 0
26.7983 0 0
26.7983 0 0
26.8945 0 0
26.8945 0 0
26.9907 0 0
26.9907 0 0
27.0869 0 0
27.0869 0 0
27.1831 0 0
27.1831 0 0
27.2793 0 0
27.2793 0 0
27.3755 0 0
27.3755 0 0
27.4717 0 0
27.4717 0 0
27.5679 0 0
27.5679 0 0
27.6641 0 0
27.6641 0 0
27.7603 0 0
27.7603 0 0
27.8564 0 0
27.8564 0 0
27.9526 0 0
27.9526 0 0
28.0488 0 0
28.0488 0 0
28.145 0 0
28.145 0 0
28.2412 0 0
28.2412 0 0
28.3374 0 0
28.3374 0 0
28.4336 0 0
28.4336 0 0
28.5298 0 0
28.5298 0 0
28.626 0 0
28.626 0 0
28.7222 0 0
28.7222 0 0
28.8184 0 0
28.8184 0 0
28.9146 0 0
28.9146 0 0
29.0107 0 0
29.0107 0 0
29.1069 0 0
29.1069 0 0
29.2031 0 0
29.2031 0 0
29.2993 0 0
29.2993 0 0
29.3955 0 0
29.3955 0 0
29.4917 0 0
29.4917 0 0
29.5879 0 0
29.5879 0 0
29.6841 0 0
29.6841 0 0
29.7803 0 0
29.7803 0 0
29.8765 0 0
29.8765 0 0
29.9727 0 0
29.9727 0 0
30.0688 0 0
30.0688 0 0
30.165 0 0
30.165 0 0
30.2612 0 0
30.2612 0 0
30.3574 0 0
30.3574 0 0
30.4536 0 0
30.4536 0 0
30.5498 0 0
30.5498 0 0
30.646 0 0
30.646 0 0
30.7422 0 0
30.7422 0 0
30.8384 0 0
30.8384 0 0
30.9346 0 0
30.9346 0 0
31.0308 0 0
31.0308 0 0
31.127 0 0
31.127 0 0
31.2231 0 0
31.2231 0 0
31.3193 0 0
31.3193 0 0
31.4155 0 0
31.4155 0 0
31.5117 0 0
31.5117 0 0
31.6079 0 0
31.6079 0 0
31.7041 0 0
31.7041 0 0
31.8003 0 0
31.8003 0 0
31.8965 0 0
31.8965 0 0
31.9927 0 0
31.9927 0 0
32.0889 0 0
32.0889 0 0
32.1851 0 0
32.1851 0 0
32.2812 0 0
32.2812 0 0
32.3774 0 0
32.3774 0 0
32.4736 0 0
32.4736 0 0
32.5698 0 0
32.5698 0 0
32.666 0 0
32.666 0 0
32.7622 0 0
32.7622 0 0
32.8584 0 0
32.8584 0 0
32.9546 0 0
32.9546 0 0
33.0508 0 0
33.0508 0 0
33.147 0 0
33.147 0 0
33.2432 0 0
33.2432 0 0
33.3394 0 0
33.3394 0 0
33.4355 0 0
33.4355 0 0
33.5317 0 0
33.5317 0 0
33.6279 0 0
33.6279 0 0
33.7241 0 0
33.7241 0 0
33.8203 0 0
33.8203 0 0
33.9165 0 0
33.9165 0 0
34.0127 0 0
34.0127 0 0
34.1089 0 0
34.1089 0 0
34.2051 0 0
34.2051 0 0
34.3013 0 0
34.3013 0 0
34.3975 0 0
34.3975 0 0
34.4937 0 0
34.4937 0 0
34.5898 0 0
34.5898 0 0
34.686 0 0
34.686 0 0
34.7822 0 0
34.7822 0 0
34.8784 0 0
34.8784 0 0
34.9746 0 0
34.9746 0 0
35.0708 0 0
35.0708 0 0
35.167 0 0
35.167 0 0
35.2632 0 0
35.2632 0 0
35.3594 0 0
35.3594 0 0
35.4556 0 0
35.4556 0 0
35.5518 0 0
35.5518 0 0
35.6479 0 0
35.6479 0 0
35.7441 0 0
35.7441 0 0
35.8403 0 0
35.8403 0 0
35.9365 0 0
35.9365 0 0
36.0327 0 0
36.0327 0 0
36.1289 0 0
36.1289 0 0
36.2251 0 0
36.2251 0 0
36.3213 0 0
36.3213 0 0
36.4175 0 0
36.4175 0 0
36.5137 0 0
36.5137 0 0
36.6099 0 0
36.6099 0 0
36.7061 0 0
36.7061 0 0
36.8022 0 0
36.8022 0 0
36.8984 0 0
36.8984 0 0
36.9946 0 0
36.9946 0 0
37.0908 0 0
37.0908 0 0
37.187 0 0
37.187 0 0
37.2832 0 0
37.2832 0 0
37.3794 0 0
37.3794 0 0
37.4756 0 0
37.4756 0 0
37.5718 0 0
37.5718 0 0
37.668 0 0
37.668 0 0
37.7642 0 0
37.7642 0 0
37.8604 0 0
37.8604 0 0
37.9565 0 0
37.9565 0 0
38.0527 0 0
38.0527 0 0
38.1489 0 0
38.1489 0 0
38.2451 0 0
38.2451 0 0
38.3413 0 0
38.3413 0 0
38.4375 0 0
38.4375 0 0
38.5337 0 0
38.5337 0 0
38.6299 0 0
38.6299 0 0
38.7261 0 0
38.7261 0 0
38.8223 0 0
38.8223 0 0
38.9185 0 0
38.9185 0 0
39.0146 0 0
39.0146 0 0
39.1108 0 0
39.1108 0 0
39.207 0 0
39.207 0 0
39.3032 0 0
39.3032 0 0
39.3994 0 0
39.3994 0 0
39.4956 0 0
39.4956 0 0
39.5918 0 0
39.5918 0 0
39.688 0 0
39.688 0 0
39.7842 0 0
39.7842 0 0
39.8804 0 0
39.8804 0 0
39.9766 0 0
39.9766 0 0
40.0728 0 0
40.0728 0 0
40.1689 0 0
40.1689 0 0
40.2651 0 0
40.2651 0 0
40.3613 0 0
40.3613 0 0
40.4575 0 0
40.4575 0 0
40.5537 0 0
40.5537 0 0
40.6499 0 0
40.6499 0 0
40.7461 0 0
40.7461 0 0
40.8423 0 0
40.8423 0 0
40.9385 0 0
40.9385 0 0
41.0347 0 0
41.0347 0 0
41.1309 0 0
41.1309 0 0
41.2271 0 0
41.2271 0 0
[...]
POINT_DATA 2048
SCALARS solution_0 double 1
LOOKUP_TABLE default
-2.39465e+09 -2.43422e+09 -2.43422e+09 -2.48324e+09 -2.48324e+09 -2.53906e+09 -2.53906e+09 -2.59971e+09 -2.59971e+09 -2.66369e+09 -2.66369e+09 -2.72988e+09 -2.72988e+09 -2.79741e+09 -2.79741e+09 -2.86563e+09 -2.86563e+09 -2.93405e+09 -2.93405e+09 -3.00227e+09 -3.00227e+09 -3.07002e+09 -3.07002e+09 -3.13706e+09 -3.13706e+09 -3.20324e+09 -3.20324e+09 -3.26841e+09 -3.26841e+09 -3.3325e+09 -3.3325e+09 -3.39543e+09 -3.39543e+09 -3.45716e+09 -3.45716e+09 -3.51764e+09 -3.51764e+09 -3.57687e+09 -3.57687e+09 -3.63482e+09 -3.63482e+09 -3.6915e+09 -3.6915e+09 -3.74692e+09 -3.74692e+09 -3.80107e+09 -3.80107e+09 -3.85397e+09 -3.85397e+09 -3.90564e+09 -3.90564e+09 -3.95608e+09 -3.95608e+09 -4.00533e+09 -4.00533e+09 -4.05339e+09 -4.05339e+09 -4.10028e+09 -4.10028e+09 -4.14603e+09 -4.14603e+09 -4.19066e+09 -4.19066e+09 -4.23419e+09 -4.23419e+09 -4.27663e+09 -4.27663e+09 -4.318e+09 -4.318e+09 -4.35834e+09 -4.35834e+09 -4.39765e+09 -4.39765e+09 -4.43596e+09 -4.43596e+09 -4.47328e+09 -4.47328e+09 -4.50964e+09 -4.50964e+09 -4.54504e+09 -4.54504e+09 -4.57952e+09 -4.57952e+09 -4.61308e+09 -4.61308e+09 -4.64575e+09 -4.64575e+09 -4.67754e+09 -4.67754e+09 -4.70846e+09 -4.70846e+09 -4.73853e+09 -4.73853e+09 -4.76777e+09 -4.76777e+09 -4.79619e+09 -4.79619e+09 -4.8238e+09 -4.8238e+09 -4.85063e+09 -4.85063e+09 -4.87668e+09 -4.87668e+09 -4.90196e+09 -4.90196e+09 -4.92649e+09 -4.92649e+09 -4.95028e+09 -4.95028e+09 -4.97334e+09 -4.97334e+09 -4.99569e+09 -4.99569e+09 -5.01734e+09 -5.01734e+09 -5.03829e+09 -5.03829e+09 -5.05857e+09 -5.05857e+09 -5.07817e+09 -5.07817e+09 -5.09711e+09 -5.09711e+09 -5.1154e+09 -5.1154e+09 -5.13305e+09 -5.13305e+09 -5.15008e+09 -5.15008e+09 -5.16648e+09 -5.16648e+09 -5.18227e+09 -5.18227e+09 -5.19745e+09 -5.19745e+09 -5.21205e+09 -5.21205e+09 -5.22606e+09 -5.22606e+09 -5.23949e+09 -5.23949e+09 -5.25235e+09 -5.25235e+09 -5.26466e+09 -5.26466e+09 -5.27641e+09 -5.27641e+09 -5.28762e+09 -5.28762e+09 -5.29829e+09 -5.29829e+09 -5.30844e+09 -5.30844e+09 -5.31806e+09 -5.31806e+09 -5.32717e+09 -5.32717e+09 -5.33577e+09 -5.33577e+09 -5.34388e+09 -5.34388e+09 -5.35149e+09 -5.35149e+09 -5.35862e+09 -5.35862e+09 -5.36526e+09 -5.36526e+09 -5.37144e+09 -5.37144e+09 -5.37715e+09 -5.37715e+09 -5.3824e+09 -5.3824e+09 -5.3872e+09 -5.3872e+09 -5.39155e+09 -5.39155e+09 -5.39546e+09 -5.39546e+09 -5.39893e+09 -5.39893e+09 -5.40198e+09 -5.40198e+09 -5.4046e+09 -5.4046e+09 -5.40681e+09 -5.40681e+09 -5.40861e+09 -5.40861e+09 -5.41e+09 -5.41e+09 -5.41099e+09 -5.41099e+09 -5.41159e+09 -5.41159e+09 -5.4118e+09 -5.4118e+09 -5.41162e+09 -5.41162e+09 -5.41107e+09 -5.41107e+09 -5.41014e+09 -5.41014e+09 -5.40885e+09 -5.40885e+09 -5.40719e+09 -5.40719e+09 -5.40518e+09 -5.40518e+09 -5.40281e+09 -5.40281e+09 -5.4001e+09 -5.4001e+09 -5.39704e+09 -5.39704e+09 -5.39365e+09 -5.39365e+09 -5.38992e+09 -5.38992e+09 -5.38587e+09 -5.38587e+09 -5.38149e+09 -5.38149e+09 -5.37679e+09 -5.37679e+09 -5.37178e+09 -5.37178e+09 -5.36646e+09 -5.36646e+09 -5.36083e+09 -5.36083e+09 -5.35491e+09 -5.35491e+09 -5.34869e+09 -5.34869e+09 -5.34217e+09 -5.34217e+09 -5.33537e+09 -5.33537e+09 -5.32828e+09 -5.32828e+09 -5.32092e+09 -5.32092e+09 -5.31328e+09 -5.31328e+09 -5.30537e+09 -5.30537e+09 -5.2972e+09 -5.2972e+09 -5.28876e+09 -5.28876e+09 -5.28006e+09 -5.28006e+09 -5.27111e+09 -5.27111e+09 -5.26191e+09 -5.26191e+09 -5.25247e+09 -5.25247e+09 -5.24278e+09 -5.24278e+09 -5.23285e+09 -5.23285e+09 -5.22269e+09 -5.22269e+09 -5.21229e+09 -5.21229e+09 -5.20167e+09 -5.20167e+09 -5.19083e+09 -5.19083e+09 -5.17976e+09 -5.17976e+09 -5.16848e+09 -5.16848e+09 -5.15699e+09 -5.15699e+09 -5.14529e+09 -5.14529e+09 -5.13338e+09 -5.13338e+09 -5.12128e+09 -5.12128e+09 -5.10897e+09 -5.10897e+09 -5.09647e+09 -5.09647e+09 -5.08377e+09 -5.08377e+09 -5.07089e+09 -5.07089e+09 -5.05783e+09 -5.05783e+09 -5.04458e+09 -5.04458e+09 -5.03115e+09 -5.03115e+09 -5.01755e+09 -5.01755e+09 -5.00378e+09 -5.00378e+09 -4.98984e+09 -4.98984e+09 -4.97574e+09 -4.97574e+09 -4.96147e+09 -4.96147e+09 -4.94704e+09 -4.94704e+09 -4.93246e+09 -4.93246e+09 -4.91773e+09 -4.91773e+09 -4.90284e+09 -4.90284e+09 -4.88781e+09 -4.88781e+09 -4.87263e+09 -4.87263e+09 -4.85732e+09 -4.85732e+09 -4.84186e+09 -4.84186e+09 -4.82628e+09 -4.82628e+09 -4.81055e+09 -4.81055e+09 -4.7947e+09 -4.7947e+09 -4.77873e+09 -4.77873e+09 -4.76263e+09 -4.76263e+09 -4.74641e+09 -4.74641e+09 -4.73007e+09 -4.73007e+09 -4.71361e+09 -4.71361e+09 -4.69704e+09 -4.69704e+09 -4.68036e+09 -4.68036e+09 -4.66358e+09 -4.66358e+09 -4.64669e+09 -4.64669e+09 -4.62969e+09 -4.62969e+09 -4.6126e+09 -4.6126e+09 -4.59541e+09 -4.59541e+09 -4.57812e+09 -4.57812e+09 -4.56074e+09 -4.56074e+09 -4.54328e+09 -4.54328e+09 -4.52572e+09 -4.52572e+09 -4.50808e+09 -4.50808e+09 -4.49036e+09 -4.49036e+09 -4.47255e+09 -4.47255e+09 -4.45467e+09 -4.45467e+09 -4.43671e+09 -4.43671e+09 -4.41868e+09 -4.41868e+09 -4.40057e+09 -4.40057e+09 -4.3824e+09 -4.3824e+09 -4.36416e+09 -4.36416e+09 -4.34585e+09 -4.34585e+09 -4.32749e+09 -4.32749e+09 -4.30906e+09 -4.30906e+09 -4.29057e+09 -4.29057e+09 -4.27203e+09 -4.27203e+09 -4.25343e+09 -4.25343e+09 -4.23478e+09 -4.23478e+09 -4.21608e+09 -4.21608e+09 -4.19733e+09 -4.19733e+09 -4.17854e+09 -4.17854e+09 -4.1597e+09 -4.1597e+09 -4.14081e+09 -4.14081e+09 -4.12189e+09 -4.12189e+09 -4.10293e+09 -4.10293e+09 -4.08393e+09 -4.08393e+09 -4.0649e+09 -4.0649e+09 -4.04583e+09 -4.04583e+09 -4.02673e+09 -4.02673e+09 -4.0076e+09 -4.0076e+09 -3.98845e+09 -3.98845e+09 -3.96926e+09 -3.96926e+09 -3.95006e+09 -3.95006e+09 -3.93082e+09 -3.93082e+09 -3.91157e+09 -3.91157e+09 -3.8923e+09 -3.8923e+09 -3.87301e+09 -3.87301e+09 -3.8537e+09 -3.8537e+09 -3.83438e+09 -3.83438e+09 -3.81505e+09 -3.81505e+09 -3.7957e+09 -3.7957e+09 -3.77635e+09 -3.77635e+09 -3.75698e+09 -3.75698e+09 -3.73761e+09 -3.73761e+09 -3.71823e+09 -3.71823e+09 -3.69885e+09 -3.69885e+09 -3.67946e+09 -3.67946e+09 -3.66007e+09 -3.66007e+09 -3.64068e+09 -3.64068e+09 -3.6213e+09 -3.6213e+09 -3.60191e+09 -3.60191e+09 -3.58253e+09 -3.58253e+09 -3.56316e+09 -3.56316e+09 -3.54379e+09 -3.54379e+09 -3.52442e+09 -3.52442e+09 -3.50507e+09 -3.50507e+09 -3.48573e+09 -3.48573e+09 -3.4664e+09 -3.4664e+09 -3.44708e+09 -3.44708e+09 -3.42777e+09 -3.42777e+09 -3.40848e+09 -3.40848e+09 -3.38921e+09 -3.38921e+09 -3.36995e+09 -3.36995e+09 -3.35071e+09 -3.35071e+09 -3.33149e+09 -3.33149e+09 -3.31229e+09 -3.31229e+09 -3.29311e+09 -3.29311e+09 -3.27396e+09 -3.27396e+09 -3.25482e+09 -3.25482e+09 -3.23572e+09 -3.23572e+09 -3.21663e+09 -3.21663e+09 -3.19758e+09 -3.19758e+09 -3.17855e+09 -3.17855e+09 -3.15955e+09 -3.15955e+09 -3.14058e+09 -3.14058e+09 -3.12164e+09 -3.12164e+09 -3.10273e+09 -3.10273e+09 -3.08385e+09 -3.08385e+09 -3.06501e+09 -3.06501e+09 -3.0462e+09 -3.0462e+09 -3.02742e+09 -3.02742e+09 -3.00868e+09 -3.00868e+09 -2.98998e+09 -2.98998e+09 -2.97131e+09 -2.97131e+09 -2.95268e+09 -2.95268e+09 -2.93409e+09 -2.93409e+09 -2.91554e+09 -2.91554e+09 -2.89703e+09 -2.89703e+09 -2.87856e+09 -2.87856e+09 -2.86013e+09 -2.86013e+09 -2.84175e+09 -2.84175e+09 -2.8234e+09 -2.8234e+09 -2.8051e+09 -2.8051e+09 -2.78685e+09 -2.78685e+09 -2.76864e+09 -2.76864e+09 -2.75047e+09 -2.75047e+09 -2.73235e+09 -2.73235e+09 -2.71428e+09 -2.71428e+09 -2.69626e+09 -2.69626e+09 -2.67828e+09 -2.67828e+09 -2.66035e+09 -2.66035e+09 -2.64248e+09 -2.64248e+09 -2.62465e+09 -2.62465e+09 -2.60687e+09 -2.60687e+09 -2.58914e+09 -2.58914e+09 -2.57146e+09 -2.57146e+09 -2.55384e+09 -2.55384e+09 -2.53626e+09 -2.53626e+09 -2.51875e+09 -2.51875e+09 -2.50128e+09 -2.50128e+09 -2.48387e+09 -2.48387e+09 -2.46651e+09 -2.46651e+09 -2.4492e+09 -2.4492e+09 -2.43195e+09 -2.43195e+09 -2.41476e+09 -2.41476e+09 -2.39762e+09 -2.39762e+09 -2.38054e+09 -2.38054e+09 -2.36351e+09 -2.36351e+09 -2.34654e+09 -2.34654e+09 -2.32963e+09 -2.32963e+09 -2.31278e+09 -2.31278e+09 -2.29599e+09 -2.29599e+09 -2.27925e+09 -2.27925e+09 -2.26257e+09 -2.26257e+09 -2.24595e+09 -2.24595e+09 -2.22939e+09 -2.22939e+09 -2.21289e+09 -2.21289e+09 -2.19645e+09 -2.19645e+09 -2.18007e+09 -2.18007e+09 -2.16375e+09 -2.16375e+09 -2.14749e+09 -2.14749e+09 -2.13129e+09 -2.13129e+09 -2.11516e+09 -2.11516e+09 -2.09908e+09 -2.09908e+09 -2.08307e+09 -2.08307e+09 -2.06712e+09 -2.06712e+09 -2.05123e+09 -2.05123e+09 -2.0354e+09 -2.0354e+09 -2.01964e+09 -2.01964e+09 -2.00393e+09 -2.00393e+09 -1.98829e+09 -1.98829e+09 -1.97272e+09 -1.97272e+09 -1.95721e+09 -1.95721e+09 -1.94176e+09 -1.94176e+09 -1.92637e+09 -1.92637e+09 -1.91105e+09 -1.91105e+09 -1.89579e+09 -1.89579e+09 -1.8806e+09 -1.8806e+09 -1.86546e+09 -1.86546e+09 -1.8504e+09 -1.8504e+09 -1.8354e+09 -1.8354e+09 -1.82046e+09 -1.82046e+09 -1.80559e+09 -1.80559e+09 -1.79078e+09 -1.79078e+09 -1.77603e+09 -1.77603e+09 -1.76135e+09 -1.76135e+09 -1.74674e+09 -1.74674e+09 -1.73219e+09 -1.73219e+09 -1.71771e+09 -1.71771e+09 -1.70329e+09 -1.70329e+09 -1.68893e+09 -1.68893e+09 -1.67464e+09 -1.67464e+09 -1.66042e+09 -1.66042e+09 -1.64626e+09 -1.64626e+09 -1.63216e+09 -1.63216e+09 -1.61813e+09 -1.61813e+09 -1.60417e+09 -1.60417e+09 -1.59027e+09 -1.59027e+09 -1.57644e+09 -1.57644e+09 -1.56267e+09 -1.56267e+09 -1.54896e+09 -1.54896e+09 -1.53533e+09 -1.53533e+09 -1.52175e+09 -1.52175e+09 -1.50824e+09 -1.50824e+09 -1.4948e+09 -1.4948e+09 -1.48142e+09 -1.48142e+09 -1.46811e+09 -1.46811e+09 -1.45486e+09 -1.45486e+09 -1.44168e+09 -1.44168e+09 -1.42856e+09 -1.42856e+09 -1.4155e+09 -1.4155e+09 -1.40251e+09 -1.40251e+09 -1.38959e+09 -1.38959e+09 -1.37673e+09 -1.37673e+09 -1.36393e+09 -1.36393e+09 -1.3512e+09 -1.3512e+09 -1.33853e+09 -1.33853e+09 -1.32593e+09 -1.32593e+09 -1.31339e+09 -1.31339e+09 -1.30091e+09 -1.30091e+09 -1.2885e+09 -1.2885e+09 -1.27615e+09 -1.27615e+09 -1.26387e+09 -1.26387e+09 -1.25165e+09 -1.25165e+09 -1.23949e+09 -1.23949e+09 -1.2274e+09 -1.2274e+09 -1.21537e+09 -1.21537e+09 -1.2034e+09 -1.2034e+09 -1.19149e+09 -1.19149e+09 -1.17965e+09 -1.17965e+09 -1.16787e+09 -1.16787e+09 -1.15616e+09 -1.15616e+09 -1.1445e+09 -1.1445e+09 -1.13291e+09 -1.13291e+09 -1.12138e+09 -1.12138e+09 -1.10991e+09 -1.10991e+09 -1.09851e+09 -1.09851e+09 -1.08716e+09 -1.08716e+09 -1.07588e+09 -1.07588e+09 -1.06466e+09 -1.06466e+09 -1.0535e+09 -1.0535e+09 -1.0424e+09 -1.0424e+09 -1.03136e+09 -1.03136e+09 -1.02038e+09 -1.02038e+09 -1.00947e+09 -1.00947e+09 -9.98611e+08 -9.98611e+08 -9.87814e+08 -9.87814e+08 -9.77078e+08 -9.77078e+08 -9.66401e+08 -9.66401e+08 -9.55784e+08 -9.55784e+08 -9.45226e+08 -9.45226e+08 -9.34727e+08 -9.34727e+08 -9.24288e+08 -9.24288e+08 -9.13907e+08 -9.13907e+08 -9.03585e+08 -9.03585e+08 -8.93322e+08 -8.93322e+08 -8.83117e+08 -8.83117e+08 -8.7297e+08 -8.7297e+08 -8.62881e+08 -8.62881e+08 -8.52849e+08 -8.52849e+08 -8.42875e+08 -8.42875e+08 -8.32958e+08 -8.32958e+08 -8.23099e+08 -8.23099e+08 -8.13296e+08 -8.13296e+08 -8.0355e+08 -8.0355e+08 -7.9386e+08 -7.9386e+08 -7.84227e+08 -7.84227e+08 -7.74649e+08 -7.74649e+08 -7.65128e+08 -7.65128e+08 -7.55662e+08 -7.55662e+08 -7.46251e+08 -7.46251e+08 -7.36896e+08 -7.36896e+08 -7.27595e+08 -7.27595e+08 -7.18349e+08 -7.18349e+08 -7.09158e+08 -7.09158e+08 -7.00021e+08 -7.00021e+08 -6.90938e+08 -6.90938e+08 -6.81909e+08 -6.81909e+08 -6.72934e+08 -6.72934e+08 -6.64011e+08 -6.64011e+08 -6.55142e+08 -6.55142e+08 -6.46326e+08 -6.46326e+08 -6.37563e+08 -6.37563e+08 -6.28852e+08 -6.28852e+08 -6.20194e+08 -6.20194e+08 -6.11587e+08 -6.11587e+08 -6.03032e+08 -6.03032e+08 -5.94529e+08 -5.94529e+08 -5.86077e+08 -5.86077e+08 -5.77677e+08 -5.77677e+08 -5.69327e+08 -5.69327e+08 -5.61027e+08 -5.61027e+08 -5.52778e+08 -5.52778e+08 -5.4458e+08 -5.4458e+08 -5.36431e+08 -5.36431e+08 -5.28332e+08 -5.28332e+08 -5.20282e+08 -5.20282e+08 -5.12282e+08 -5.12282e+08 -5.04331e+08 -5.04331e+08 -4.96428e+08 -4.96428e+08 -4.88574e+08 -4.88574e+08 -4.80768e+08 -4.80768e+08 -4.7301e+08 -4.7301e+08 -4.653e+08 -4.653e+08 -4.57638e+08 -4.57638e+08 -4.50023e+08 -4.50023e+08 -4.42455e+08 -4.42455e+08 -4.34934e+08 -4.34934e+08 -4.2746e+08 -4.2746e+08 -4.20032e+08 -4.20032e+08 -4.1265e+08 -4.1265e+08 -4.05314e+08 -4.05314e+08 -3.98024e+08 -3.98024e+08 -3.90779e+08 -3.90779e+08 -3.8358e+08 -3.8358e+08 -3.76425e+08 -3.76425e+08 -3.69316e+08 -3.69316e+08 -3.6225e+08 -3.6225e+08 -3.55229e+08 -3.55229e+08 -3.48252e+08 -3.48252e+08 -3.41319e+08 -3.41319e+08 -3.3443e+08 -3.3443e+08 -3.27584e+08 -3.27584e+08 -3.2078e+08 -3.2078e+08 -3.1402e+08 -3.1402e+08 -3.07303e+08 -3.07303e+08 -3.00627e+08 -3.00627e+08 -2.93994e+08 -2.93994e+08 -2.87403e+08 -2.87403e+08 -2.80854e+08 -2.80854e+08 -2.74346e+08 -2.74346e+08 -2.6788e+08 -2.6788e+08 -2.61454e+08 -2.61454e+08 -2.55069e+08 -2.55069e+08 -2.48725e+08 -2.48725e+08 -2.42421e+08 -2.42421e+08 -2.36157e+08 -2.36157e+08 -2.29933e+08 -2.29933e+08 -2.23749e+08 -2.23749e+08 -2.17604e+08 -2.17604e+08 -2.11498e+08 -2.11498e+08 -2.05432e+08 -2.05432e+08 -1.99404e+08 -1.99404e+08 -1.93414e+08 -1.93414e+08 -1.87463e+08 -1.87463e+08 -1.8155e+08 -1.8155e+08 -1.75675e+08 -1.75675e+08 -1.69837e+08 -1.69837e+08 -1.64037e+08 -1.64037e+08 -1.58274e+08 -1.58274e+08 -1.52547e+08 -1.52547e+08 -1.46858e+08 -1.46858e+08 -1.41205e+08 -1.41205e+08 -1.35589e+08 -1.35589e+08 -1.30008e+08 -1.30008e+08 -1.24464e+08 -1.24464e+08 -1.18955e+08 -1.18955e+08 -1.13481e+08 -1.13481e+08 -1.08043e+08 -1.08043e+08 -1.02639e+08 -1.02639e+08 -9.72709e+07 -9.72709e+07 -9.1937e+07 -9.1937e+07 -8.66375e+07 -8.66375e+07 -8.13721e+07 -8.13721e+07 -7.61406e+07 -7.61406e+07 -7.09429e+07 -7.09429e+07 -6.57788e+07 -6.57788e+07 -6.06479e+07 -6.06479e+07 -5.55502e+07 -5.55502e+07 -5.04854e+07 -5.04854e+07 -4.54533e+07 -4.54533e+07 -4.04537e+07 -4.04537e+07 -3.54864e+07 -3.54864e+07 -3.05511e+07 -3.05511e+07 -2.56478e+07 -2.56478e+07 -2.07762e+07 -2.07762e+07 -1.59361e+07 -1.59361e+07 -1.11273e+07 -1.11273e+07 -6.34959e+06 -6.34959e+06 -1.60277e+06 -1.60277e+06 3.11333e+06 3.11333e+06 7.79892e+06 7.79892e+06 1.24542e+07 1.24542e+07 1.70793e+07 1.70793e+07 2.16746e+07 2.16746e+07 2.624e+07 2.624e+07 3.0776e+07 3.0776e+07 3.52825e+07 3.52825e+07 3.97599e+07 3.97599e+07 4.42083e+07 4.42083e+07 4.86279e+07 4.86279e+07 5.30189e+07 5.30189e+07 5.73815e+07 5.73815e+07 6.17158e+07 6.17158e+07 6.6022e+07 6.6022e+07 7.03004e+07 7.03004e+07 7.45511e+07 7.45511e+07 7.87742e+07 7.87742e+07 8.297e+07 8.297e+07 8.71387e+07 8.71387e+07 9.12803e+07 9.12803e+07 9.53952e+07 9.53952e+07 9.94834e+07 9.94834e+07 1.03545e+08 1.03545e+08 1.07581e+08 1.07581e+08 1.1159e+08 1.1159e+08 1.15573e+08 1.15573e+08 1.19531e+08 1.19531e+08 1.23463e+08 1.23463e+08 1.2737e+08 1.2737e+08 1.31251e+08 1.31251e+08 1.35107e+08 1.35107e+08 1.38938e+08 1.38938e+08 1.42745e+08 1.42745e+08 1.46526e+08 1.46526e+08 1.50284e+08 1.50284e+08 1.54017e+08 1.54017e+08 1.57726e+08 1.57726e+08 1.61411e+08 1.61411e+08 1.65072e+08 1.65072e+08 1.68709e+08 1.68709e+08 1.72323e+08 1.72323e+08 1.75914e+08 1.75914e+08 1.79481e+08 1.79481e+08 1.83026e+08 1.83026e+08 1.86547e+08 1.86547e+08 1.90046e+08 1.90046e+08 1.93522e+08 1.93522e+08 1.96976e+08 1.96976e+08 2.00407e+08 2.00407e+08 2.03816e+08 2.03816e+08 2.07204e+08 2.07204e+08 2.10569e+08 2.10569e+08 2.13912e+08 2.13912e+08 2.17235e+08 2.17235e+08 2.20535e+08 2.20535e+08 2.23814e+08 2.23814e+08 2.27072e+08 2.27072e+08 2.3031e+08 2.3031e+08 2.33526e+08 2.33526e+08 2.36721e+08 2.36721e+08 2.39896e+08 2.39896e+08 2.4305e+08 2.4305e+08 2.46184e+08 2.46184e+08 2.49298e+08 2.49298e+08 2.52392e+08 2.52392e+08 2.55465e+08 2.55465e+08 2.58519e+08 2.58519e+08 2.61553e+08 2.61553e+08 2.64568e+08 2.64568e+08 2.67563e+08 2.67563e+08 2.70539e+08 2.70539e+08 2.73496e+08 2.73496e+08 2.76433e+08 2.76433e+08 2.79352e+08 2.79352e+08 2.82251e+08 2.82251e+08 2.85132e+08 2.85132e+08 2.87995e+08 2.87995e+08 2.90838e+08 2.90838e+08 2.93664e+08 2.93664e+08 2.96471e+08 2.96471e+08 2.9926e+08 2.9926e+08 3.02031e+08 3.02031e+08 3.04785e+08 3.04785e+08 3.0752e+08 3.0752e+08 3.10238e+08 3.10238e+08 3.12938e+08 3.12938e+08 3.1562e+08 3.1562e+08 3.18286e+08 3.18286e+08 3.20934e+08 3.20934e+08 3.23564e+08 3.23564e+08 3.26178e+08 3.26178e+08 3.28775e+08 3.28775e+08 3.31355e+08 3.31355e+08 3.33918e+08 3.33918e+08 3.36464e+08 3.36464e+08 3.38994e+08 3.38994e+08 3.41508e+08 3.41508e+08 3.44005e+08 3.44005e+08 3.46486e+08 3.46486e+08 3.48951e+08 3.48951e+08 3.514e+08 3.514e+08 3.53832e+08 3.53832e+08 3.56249e+08 3.56249e+08 3.5865e+08 3.5865e+08 3.61035e+08 3.61035e+08 3.63405e+08 3.63405e+08 3.65759e+08 3.65759e+08 3.68098e+08 3.68098e+08 3.70421e+08 3.70421e+08 3.7273e+08 3.7273e+08 3.75022e+08 3.75022e+08 3.773e+08 3.773e+08 3.79563e+08 3.79563e+08 3.81811e+08 3.81811e+08 3.84044e+08 3.84044e+08 3.86262e+08 3.86262e+08 3.88466e+08 3.88466e+08 3.90655e+08 3.90655e+08 3.92829e+08 3.92829e+08 3.94989e+08 3.94989e+08 3.97135e+08 3.97135e+08 3.99266e+08 3.99266e+08 4.01383e+08 4.01383e+08 4.03486e+08 4.03486e+08 4.05574e+08 4.05574e+08 4.07649e+08 4.07649e+08 4.0971e+08 4.0971e+08 4.11757e+08 4.11757e+08 4.1379e+08 4.1379e+08 4.15809e+08 4.15809e+08 4.17815e+08 4.17815e+08 4.19806e+08 4.19806e+08 4.21785e+08 4.21785e+08 4.2375e+08 4.2375e+08 4.25701e+08 4.25701e+08 4.27639e+08 4.27639e+08 4.29564e+08 4.29564e+08 4.31475e+08 4.31475e+08 4.33374e+08 4.33374e+08 4.35259e+08 4.35259e+08 4.37131e+08 4.37131e+08 4.3899e+08 4.3899e+08 4.40836e+08 4.40836e+08 4.42669e+08 4.42669e+08 4.4449e+08 4.4449e+08 4.46297e+08 4.46297e+08 4.48092e+08 4.48092e+08 4.49874e+08 4.49874e+08 4.51643e+08 4.51643e+08 4.534e+08 4.534e+08 4.55144e+08 4.55144e+08 4.56876e+08 4.56876e+08 4.58595e+08 4.58595e+08 4.60301e+08 4.60301e+08 4.61996e+08 4.61996e+08 4.63678e+08 4.63678e+08 4.65348e+08 4.65348e+08 4.67005e+08 4.67005e+08 4.6865e+08 4.6865e+08 4.70283e+08 4.70283e+08 4.71904e+08 4.71904e+08 4.73513e+08 4.73513e+08 4.7511e+08 4.7511e+08 4.76695e+08 4.76695e+08 4.78268e+08 4.78268e+08 4.79829e+08 4.79829e+08 4.81378e+08 4.81378e+08 4.82915e+08 4.82915e+08 4.8444e+08 4.8444e+08 4.85953e+08 4.85953e+08 4.87455e+08 4.87455e+08 4.88945e+08 4.88945e+08 4.90423e+08 4.90423e+08 4.91889e+08 4.91889e+08 4.93344e+08 4.93344e+08 4.94787e+08 4.94787e+08 4.96219e+08 4.96219e+08 4.97639e+08 4.97639e+08 4.99047e+08 4.99047e+08 5.00444e+08 5.00444e+08 5.0183e+08 5.0183e+08 5.03203e+08 5.03203e+08 5.04566e+08 5.04566e+08 5.05917e+08 5.05917e+08 5.07256e+08 5.07256e+08 5.08585e+08 5.08585e+08 5.09901e+08 5.09901e+08 5.11207e+08 5.11207e+08 5.12501e+08 5.12501e+08 5.13783e+08 5.13783e+08 5.15055e+08 5.15055e+08 5.16315e+08 5.16315e+08 5.17563e+08 5.17563e+08 5.18801e+08 5.18801e+08 5.20027e+08 5.20027e+08 5.21242e+08 5.21242e+08 5.22446e+08 5.22446e+08 5.23638e+08 5.23638e+08 5.2482e+08 5.2482e+08 5.2599e+08 5.2599e+08 5.27149e+08 5.27149e+08 5.28296e+08 5.28296e+08 5.29433e+08 5.29433e+08 5.30558e+08 5.30558e+08 5.31672e+08 5.31672e+08 5.32775e+08 5.32775e+08 5.33867e+08 5.33867e+08 5.34947e+08 5.34947e+08 5.36017e+08 5.36017e+08 5.37075e+08 5.37075e+08 5.38122e+08 5.38122e+08 5.39158e+08 5.39158e+08 5.40183e+08 5.40183e+08 5.41197e+08 5.41197e+08 5.42199e+08 5.42199e+08 5.43191e+08 5.43191e+08 5.44171e+08 5.44171e+08 5.4514e+08 5.4514e+08 5.46098e+08 5.46098e+08 5.47044e+08 5.47044e+08 5.4798e+08 5.4798e+08 5.48904e+08 5.48904e+08 5.49817e+08 5.49817e+08 5.50719e+08 5.50719e+08 5.5161e+08 5.5161e+08 5.5249e+08 5.5249e+08 5.53358e+08 5.53358e+08 5.54215e+08 5.54215e+08 5.55061e+08 5.55061e+08 5.55895e+08 5.55895e+08 5.56719e+08 5.56719e+08 5.57531e+08 5.57531e+08 5.58332e+08 5.58332e+08 5.59121e+08 5.59121e+08 5.59899e+08 5.59899e+08 5.60666e+08 5.60666e+08 5.61422e+08 5.61422e+08 5.62166e+08 5.62166e+08 5.62899e+08 5.62899e+08 5.6362e+08 5.6362e+08 5.6433e+08 5.6433e+08 5.65029e+08 5.65029e+08 5.65716e+08 5.65716e+08 5.66392e+08 5.66392e+08 5.67056e+08 5.67056e+08 5.67709e+08 5.67709e+08 5.6835e+08 5.6835e+08 5.6898e+08 5.6898e+08 5.69598e+08 5.69598e+08 5.70204e+08 5.70204e+08 5.70799e+08 5.70799e+08 5.71383e+08 5.71383e+08 5.71954e+08 5.71954e+08 5.72515e+08 5.72515e+08 5.73063e+08 5.73063e+08 5.736e+08 5.736e+08 5.74125e+08 5.74125e+08 5.74638e+08 5.74638e+08 5.75139e+08 5.75139e+08 5.75629e+08 5.75629e+08 5.76106e+08 5.76106e+08 5.76572e+08 5.76572e+08 5.77026e+08 5.77026e+08 5.77468e+08 5.77468e+08 5.77898e+08 5.77898e+08 5.78317e+08 5.