# vtk DataFile Version 3.0
#This file was generated by the deal.II library on 2020/9/1 at 15:07:48
ASCII
DATASET UNSTRUCTURED_GRID

POINTS 2048 double
1.5 0 0
1.59619 0 0
1.59619 0 0
1.69238 0 0
1.69238 0 0
1.78857 0 0
1.78857 0 0
1.88477 0 0
1.88477 0 0
1.98096 0 0
1.98096 0 0
2.07715 0 0
2.07715 0 0
2.17334 0 0
2.17334 0 0
2.26953 0 0
2.26953 0 0
2.36572 0 0
2.36572 0 0
2.46191 0 0
2.46191 0 0
2.55811 0 0
2.55811 0 0
2.6543 0 0
2.6543 0 0
2.75049 0 0
2.75049 0 0
2.84668 0 0
2.84668 0 0
2.94287 0 0
2.94287 0 0
3.03906 0 0
3.03906 0 0
3.13525 0 0
3.13525 0 0
3.23145 0 0
3.23145 0 0
3.32764 0 0
3.32764 0 0
3.42383 0 0
3.42383 0 0
3.52002 0 0
3.52002 0 0
3.61621 0 0
3.61621 0 0
3.7124 0 0
3.7124 0 0
3.80859 0 0
3.80859 0 0
3.90479 0 0
3.90479 0 0
4.00098 0 0
4.00098 0 0
4.09717 0 0
4.09717 0 0
4.19336 0 0
4.19336 0 0
4.28955 0 0
4.28955 0 0
4.38574 0 0
4.38574 0 0
4.48193 0 0
4.48193 0 0
4.57812 0 0
4.57812 0 0
4.67432 0 0
4.67432 0 0
4.77051 0 0
4.77051 0 0
4.8667 0 0
4.8667 0 0
4.96289 0 0
4.96289 0 0
5.05908 0 0
5.05908 0 0
5.15527 0 0
5.15527 0 0
5.25146 0 0
5.25146 0 0
5.34766 0 0
5.34766 0 0
5.44385 0 0
5.44385 0 0
5.54004 0 0
5.54004 0 0
5.63623 0 0
5.63623 0 0
5.73242 0 0
5.73242 0 0
5.82861 0 0
5.82861 0 0
5.9248 0 0
5.9248 0 0
6.021 0 0
6.021 0 0
6.11719 0 0
6.11719 0 0
6.21338 0 0
6.21338 0 0
6.30957 0 0
6.30957 0 0
6.40576 0 0
6.40576 0 0
6.50195 0 0
6.50195 0 0
6.59814 0 0
6.59814 0 0
6.69434 0 0
6.69434 0 0
6.79053 0 0
6.79053 0 0
6.88672 0 0
6.88672 0 0
6.98291 0 0
6.98291 0 0
7.0791 0 0
7.0791 0 0
7.17529 0 0
7.17529 0 0
7.27148 0 0
7.27148 0 0
7.36768 0 0
7.36768 0 0
7.46387 0 0
7.46387 0 0
7.56006 0 0
7.56006 0 0
7.65625 0 0
7.65625 0 0
7.75244 0 0
7.75244 0 0
7.84863 0 0
7.84863 0 0
7.94482 0 0
7.94482 0 0
8.04102 0 0
8.04102 0 0
8.13721 0 0
8.13721 0 0
8.2334 0 0
8.2334 0 0
8.32959 0 0
8.32959 0 0
8.42578 0 0
8.42578 0 0
8.52197 0 0
8.52197 0 0
8.61816 0 0
8.61816 0 0
8.71436 0 0
8.71436 0 0
8.81055 0 0
8.81055 0 0
8.90674 0 0
8.90674 0 0
9.00293 0 0
9.00293 0 0
9.09912 0 0
9.09912 0 0
9.19531 0 0
9.19531 0 0
9.2915 0 0
9.2915 0 0
9.3877 0 0
9.3877 0 0
9.48389 0 0
9.48389 0 0
9.58008 0 0
9.58008 0 0
9.67627 0 0
9.67627 0 0
9.77246 0 0
9.77246 0 0
9.86865 0 0
9.86865 0 0
9.96484 0 0
9.96484 0 0
10.061 0 0
10.061 0 0
10.1572 0 0
10.1572 0 0
10.2534 0 0
10.2534 0 0
10.3496 0 0
10.3496 0 0
10.4458 0 0
10.4458 0 0
10.542 0 0
10.542 0 0
10.6382 0 0
10.6382 0 0
10.7344 0 0
10.7344 0 0
10.8306 0 0
10.8306 0 0
10.9268 0 0
10.9268 0 0
11.0229 0 0
11.0229 0 0
11.1191 0 0
11.1191 0 0
11.2153 0 0
11.2153 0 0
11.3115 0 0
11.3115 0 0
11.4077 0 0
11.4077 0 0
11.5039 0 0
11.5039 0 0
11.6001 0 0
11.6001 0 0
11.6963 0 0
11.6963 0 0
11.7925 0 0
11.7925 0 0
11.8887 0 0
11.8887 0 0
11.9849 0 0
11.9849 0 0
12.0811 0 0
12.0811 0 0
12.1772 0 0
12.1772 0 0
12.2734 0 0
12.2734 0 0
12.3696 0 0
12.3696 0 0
12.4658 0 0
12.4658 0 0
12.562 0 0
12.562 0 0
12.6582 0 0
12.6582 0 0
12.7544 0 0
12.7544 0 0
12.8506 0 0
12.8506 0 0
12.9468 0 0
12.9468 0 0
13.043 0 0
13.043 0 0
13.1392 0 0
13.1392 0 0
13.2354 0 0
13.2354 0 0
13.3315 0 0
13.3315 0 0
13.4277 0 0
13.4277 0 0
13.5239 0 0
13.5239 0 0
13.6201 0 0
13.6201 0 0
13.7163 0 0
13.7163 0 0
13.8125 0 0
13.8125 0 0
13.9087 0 0
13.9087 0 0
14.0049 0 0
14.0049 0 0
14.1011 0 0
14.1011 0 0
14.1973 0 0
14.1973 0 0
14.2935 0 0
14.2935 0 0
14.3896 0 0
14.3896 0 0
14.4858 0 0
14.4858 0 0
14.582 0 0
14.582 0 0
14.6782 0 0
14.6782 0 0
14.7744 0 0
14.7744 0 0
14.8706 0 0
14.8706 0 0
14.9668 0 0
14.9668 0 0
15.063 0 0
15.063 0 0
15.1592 0 0
15.1592 0 0
15.2554 0 0
15.2554 0 0
15.3516 0 0
15.3516 0 0
15.4478 0 0
15.4478 0 0
15.5439 0 0
15.5439 0 0
15.6401 0 0
15.6401 0 0
15.7363 0 0
15.7363 0 0
15.8325 0 0
15.8325 0 0
15.9287 0 0
15.9287 0 0
16.0249 0 0
16.0249 0 0
16.1211 0 0
16.1211 0 0
16.2173 0 0
16.2173 0 0
16.3135 0 0
16.3135 0 0
16.4097 0 0
16.4097 0 0
16.5059 0 0
16.5059 0 0
16.6021 0 0
16.6021 0 0
16.6982 0 0
16.6982 0 0
16.7944 0 0
16.7944 0 0
16.8906 0 0
16.8906 0 0
16.9868 0 0
16.9868 0 0
17.083 0 0
17.083 0 0
17.1792 0 0
17.1792 0 0
17.2754 0 0
17.2754 0 0
17.3716 0 0
17.3716 0 0
17.4678 0 0
17.4678 0 0
17.564 0 0
17.564 0 0
17.6602 0 0
17.6602 0 0
17.7563 0 0
17.7563 0 0
17.8525 0 0
17.8525 0 0
17.9487 0 0
17.9487 0 0
18.0449 0 0
18.0449 0 0
18.1411 0 0
18.1411 0 0
18.2373 0 0
18.2373 0 0
18.3335 0 0
18.3335 0 0
18.4297 0 0
18.4297 0 0
18.5259 0 0
18.5259 0 0
18.6221 0 0
18.6221 0 0
18.7183 0 0
18.7183 0 0
18.8145 0 0
18.8145 0 0
18.9106 0 0
18.9106 0 0
19.0068 0 0
19.0068 0 0
19.103 0 0
19.103 0 0
19.1992 0 0
19.1992 0 0
19.2954 0 0
19.2954 0 0
19.3916 0 0
19.3916 0 0
19.4878 0 0
19.4878 0 0
19.584 0 0
19.584 0 0
19.6802 0 0
19.6802 0 0
19.7764 0 0
19.7764 0 0
19.8726 0 0
19.8726 0 0
19.9688 0 0
19.9688 0 0
20.0649 0 0
20.0649 0 0
20.1611 0 0
20.1611 0 0
20.2573 0 0
20.2573 0 0
20.3535 0 0
20.3535 0 0
20.4497 0 0
20.4497 0 0
20.5459 0 0
20.5459 0 0
20.6421 0 0
20.6421 0 0
20.7383 0 0
20.7383 0 0
20.8345 0 0
20.8345 0 0
20.9307 0 0
20.9307 0 0
21.0269 0 0
21.0269 0 0
21.123 0 0
21.123 0 0
21.2192 0 0
21.2192 0 0
21.3154 0 0
21.3154 0 0
21.4116 0 0
21.4116 0 0
21.5078 0 0
21.5078 0 0
21.604 0 0
21.604 0 0
21.7002 0 0
21.7002 0 0
21.7964 0 0
21.7964 0 0
21.8926 0 0
21.8926 0 0
21.9888 0 0
21.9888 0 0
22.085 0 0
22.085 0 0
22.1812 0 0
22.1812 0 0
22.2773 0 0
22.2773 0 0
22.3735 0 0
22.3735 0 0
22.4697 0 0
22.4697 0 0
22.5659 0 0
22.5659 0 0
22.6621 0 0
22.6621 0 0
22.7583 0 0
22.7583 0 0
22.8545 0 0
22.8545 0 0
22.9507 0 0
22.9507 0 0
23.0469 0 0
23.0469 0 0
23.1431 0 0
23.1431 0 0
23.2393 0 0
23.2393 0 0
23.3354 0 0
23.3354 0 0
23.4316 0 0
23.4316 0 0
23.5278 0 0
23.5278 0 0
23.624 0 0
23.624 0 0
23.7202 0 0
23.7202 0 0
23.8164 0 0
23.8164 0 0
23.9126 0 0
23.9126 0 0
24.0088 0 0
24.0088 0 0
24.105 0 0
24.105 0 0
24.2012 0 0
24.2012 0 0
24.2974 0 0
24.2974 0 0
24.3936 0 0
24.3936 0 0
24.4897 0 0
24.4897 0 0
24.5859 0 0
24.5859 0 0
24.6821 0 0
24.6821 0 0
24.7783 0 0
24.7783 0 0
24.8745 0 0
24.8745 0 0
24.9707 0 0
24.9707 0 0
25.0669 0 0
25.0669 0 0
25.1631 0 0
25.1631 0 0
25.2593 0 0
25.2593 0 0
25.3555 0 0
25.3555 0 0
25.4517 0 0
25.4517 0 0
25.5479 0 0
25.5479 0 0
25.644 0 0
25.644 0 0
25.7402 0 0
25.7402 0 0
25.8364 0 0
25.8364 0 0
25.9326 0 0
25.9326 0 0
26.0288 0 0
26.0288 0 0
26.125 0 0
26.125 0 0
26.2212 0 0
26.2212 0 0
26.3174 0 0
26.3174 0 0
26.4136 0 0
26.4136 0 0
26.5098 0 0
26.5098 0 0
26.606 0 0
26.606 0 0
26.7021 0 0
26.7021 0 0
26.7983 0 0
26.7983 0 0
26.8945 0 0
26.8945 0 0
26.9907 0 0
26.9907 0 0
27.0869 0 0
27.0869 0 0
27.1831 0 0
27.1831 0 0
27.2793 0 0
27.2793 0 0
27.3755 0 0
27.3755 0 0
27.4717 0 0
27.4717 0 0
27.5679 0 0
27.5679 0 0
27.6641 0 0
27.6641 0 0
27.7603 0 0
27.7603 0 0
27.8564 0 0
27.8564 0 0
27.9526 0 0
27.9526 0 0
28.0488 0 0
28.0488 0 0
28.145 0 0
28.145 0 0
28.2412 0 0
28.2412 0 0
28.3374 0 0
28.3374 0 0
28.4336 0 0
28.4336 0 0
28.5298 0 0
28.5298 0 0
28.626 0 0
28.626 0 0
28.7222 0 0
28.7222 0 0
28.8184 0 0
28.8184 0 0
28.9146 0 0
28.9146 0 0
29.0107 0 0
29.0107 0 0
29.1069 0 0
29.1069 0 0
29.2031 0 0
29.2031 0 0
29.2993 0 0
29.2993 0 0
29.3955 0 0
29.3955 0 0
29.4917 0 0
29.4917 0 0
29.5879 0 0
29.5879 0 0
29.6841 0 0
29.6841 0 0
29.7803 0 0
29.7803 0 0
29.8765 0 0
29.8765 0 0
29.9727 0 0
29.9727 0 0
30.0688 0 0
30.0688 0 0
30.165 0 0
30.165 0 0
30.2612 0 0
30.2612 0 0
30.3574 0 0
30.3574 0 0
30.4536 0 0
30.4536 0 0
30.5498 0 0
30.5498 0 0
30.646 0 0
30.646 0 0
30.7422 0 0
30.7422 0 0
30.8384 0 0
30.8384 0 0
30.9346 0 0
30.9346 0 0
31.0308 0 0
31.0308 0 0
31.127 0 0
31.127 0 0
31.2231 0 0
31.2231 0 0
31.3193 0 0
31.3193 0 0
31.4155 0 0
31.4155 0 0
31.5117 0 0
31.5117 0 0
31.6079 0 0
31.6079 0 0
31.7041 0 0
31.7041 0 0
31.8003 0 0
31.8003 0 0
31.8965 0 0
31.8965 0 0
31.9927 0 0
31.9927 0 0
32.0889 0 0
32.0889 0 0
32.1851 0 0
32.1851 0 0
32.2812 0 0
32.2812 0 0
32.3774 0 0
32.3774 0 0
32.4736 0 0
32.4736 0 0
32.5698 0 0
32.5698 0 0
32.666 0 0
32.666 0 0
32.7622 0 0
32.7622 0 0
32.8584 0 0
32.8584 0 0
32.9546 0 0
32.9546 0 0
33.0508 0 0
33.0508 0 0
33.147 0 0
33.147 0 0
33.2432 0 0
33.2432 0 0
33.3394 0 0
33.3394 0 0
33.4355 0 0
33.4355 0 0
33.5317 0 0
33.5317 0 0
33.6279 0 0
33.6279 0 0
33.7241 0 0
33.7241 0 0
33.8203 0 0
33.8203 0 0
33.9165 0 0
33.9165 0 0
34.0127 0 0
34.0127 0 0
34.1089 0 0
34.1089 0 0
34.2051 0 0
34.2051 0 0
34.3013 0 0
34.3013 0 0
34.3975 0 0
34.3975 0 0
34.4937 0 0
34.4937 0 0
34.5898 0 0
34.5898 0 0
34.686 0 0
34.686 0 0
34.7822 0 0
34.7822 0 0
34.8784 0 0
34.8784 0 0
34.9746 0 0
34.9746 0 0
35.0708 0 0
35.0708 0 0
35.167 0 0
35.167 0 0
35.2632 0 0
35.2632 0 0
35.3594 0 0
35.3594 0 0
35.4556 0 0
35.4556 0 0
35.5518 0 0
35.5518 0 0
35.6479 0 0
35.6479 0 0
35.7441 0 0
35.7441 0 0
35.8403 0 0
35.8403 0 0
35.9365 0 0
35.9365 0 0
36.0327 0 0
36.0327 0 0
36.1289 0 0
36.1289 0 0
36.2251 0 0
36.2251 0 0
36.3213 0 0
36.3213 0 0
36.4175 0 0
36.4175 0 0
36.5137 0 0
36.5137 0 0
36.6099 0 0
36.6099 0 0
36.7061 0 0
36.7061 0 0
36.8022 0 0
36.8022 0 0
36.8984 0 0
36.8984 0 0
36.9946 0 0
36.9946 0 0
37.0908 0 0
37.0908 0 0
37.187 0 0
37.187 0 0
37.2832 0 0
37.2832 0 0
37.3794 0 0
37.3794 0 0
37.4756 0 0
37.4756 0 0
37.5718 0 0
37.5718 0 0
37.668 0 0
37.668 0 0
37.7642 0 0
37.7642 0 0
37.8604 0 0
37.8604 0 0
37.9565 0 0
37.9565 0 0
38.0527 0 0
38.0527 0 0
38.1489 0 0
38.1489 0 0
38.2451 0 0
38.2451 0 0
38.3413 0 0
38.3413 0 0
38.4375 0 0
38.4375 0 0
38.5337 0 0
38.5337 0 0
38.6299 0 0
38.6299 0 0
38.7261 0 0
38.7261 0 0
38.8223 0 0
38.8223 0 0
38.9185 0 0
38.9185 0 0
39.0146 0 0
39.0146 0 0
39.1108 0 0
39.1108 0 0
39.207 0 0
39.207 0 0
39.3032 0 0
39.3032 0 0
39.3994 0 0
39.3994 0 0
39.4956 0 0
39.4956 0 0
39.5918 0 0
39.5918 0 0
39.688 0 0
39.688 0 0
39.7842 0 0
39.7842 0 0
39.8804 0 0
39.8804 0 0
39.9766 0 0
39.9766 0 0
40.0728 0 0
40.0728 0 0
40.1689 0 0
40.1689 0 0
40.2651 0 0
40.2651 0 0
40.3613 0 0
40.3613 0 0
40.4575 0 0
40.4575 0 0
40.5537 0 0
40.5537 0 0
40.6499 0 0
40.6499 0 0
40.7461 0 0
40.7461 0 0
40.8423 0 0
40.8423 0 0
40.9385 0 0
40.9385 0 0
41.0347 0 0
41.0347 0 0
41.1309 0 0
41.1309 0 0
41.2271 0 0
41.2271 0 0
[...]
POINT_DATA 2048
SCALARS solution_0 double 1
LOOKUP_TABLE default
-2.61052e+09 -2.63854e+09 -2.63854e+09 -2.67636e+09 -2.67636e+09 -2.72138e+09 -2.72138e+09 -2.77164e+09 -2.77164e+09 -2.82567e+09 -2.82567e+09 -2.88231e+09 -2.88231e+09 -2.94069e+09 -2.94069e+09 -3.00014e+09 -3.00014e+09 -3.06014e+09 -3.06014e+09 -3.12029e+09 -3.12029e+09 -3.18026e+09 -3.18026e+09 -3.23982e+09 -3.23982e+09 -3.29877e+09 -3.29877e+09 -3.35697e+09 -3.35697e+09 -3.41431e+09 -3.41431e+09 -3.47071e+09 -3.47071e+09 -3.5261e+09 -3.5261e+09 -3.58042e+09 -3.58042e+09 -3.63366e+09 -3.63366e+09 -3.68579e+09 -3.68579e+09 -3.73679e+09 -3.73679e+09 -3.78666e+09 -3.78666e+09 -3.83539e+09 -3.83539e+09 -3.88299e+09 -3.88299e+09 -3.92946e+09 -3.92946e+09 -3.97482e+09 -3.97482e+09 -4.01907e+09 -4.01907e+09 -4.06223e+09 -4.06223e+09 -4.10431e+09 -4.10431e+09 -4.14533e+09 -4.14533e+09 -4.1853e+09 -4.1853e+09 -4.22425e+09 -4.22425e+09 -4.26217e+09 -4.26217e+09 -4.2991e+09 -4.2991e+09 -4.33505e+09 -4.33505e+09 -4.37003e+09 -4.37003e+09 -4.40407e+09 -4.40407e+09 -4.43717e+09 -4.43717e+09 -4.46936e+09 -4.46936e+09 -4.50066e+09 -4.50066e+09 -4.53107e+09 -4.53107e+09 -4.56061e+09 -4.56061e+09 -4.5893e+09 -4.5893e+09 -4.61715e+09 -4.61715e+09 -4.64418e+09 -4.64418e+09 -4.67041e+09 -4.67041e+09 -4.69584e+09 -4.69584e+09 -4.72049e+09 -4.72049e+09 -4.74437e+09 -4.74437e+09 -4.7675e+09 -4.7675e+09 -4.78988e+09 -4.78988e+09 -4.81154e+09 -4.81154e+09 -4.83249e+09 -4.83249e+09 -4.85273e+09 -4.85273e+09 -4.87227e+09 -4.87227e+09 -4.89114e+09 -4.89114e+09 -4.90933e+09 -4.90933e+09 -4.92687e+09 -4.92687e+09 -4.94376e+09 -4.94376e+09 -4.96e+09 -4.96e+09 -4.97562e+09 -4.97562e+09 -4.99063e+09 -4.99063e+09 -5.00502e+09 -5.00502e+09 -5.01882e+09 -5.01882e+09 -5.03202e+09 -5.03202e+09 -5.04465e+09 -5.04465e+09 -5.0567e+09 -5.0567e+09 -5.06819e+09 -5.06819e+09 -5.07913e+09 -5.07913e+09 -5.08952e+09 -5.08952e+09 -5.09938e+09 -5.09938e+09 -5.10871e+09 -5.10871e+09 -5.11751e+09 -5.11751e+09 -5.1258e+09 -5.1258e+09 -5.13359e+09 -5.13359e+09 -5.14088e+09 -5.14088e+09 -5.14768e+09 -5.14768e+09 -5.15399e+09 -5.15399e+09 -5.15983e+09 -5.15983e+09 -5.1652e+09 -5.1652e+09 -5.17011e+09 -5.17011e+09 -5.17456e+09 -5.17456e+09 -5.17856e+09 -5.17856e+09 -5.18213e+09 -5.18213e+09 -5.18525e+09 -5.18525e+09 -5.18795e+09 -5.18795e+09 -5.19022e+09 -5.19022e+09 -5.19208e+09 -5.19208e+09 -5.19353e+09 -5.19353e+09 -5.19458e+09 -5.19458e+09 -5.19522e+09 -5.19522e+09 -5.19548e+09 -5.19548e+09 -5.19535e+09 -5.19535e+09 -5.19483e+09 -5.19483e+09 -5.19395e+09 -5.19395e+09 -5.19269e+09 -5.19269e+09 -5.19107e+09 -5.19107e+09 -5.18909e+09 -5.18909e+09 -5.18675e+09 -5.18675e+09 -5.18407e+09 -5.18407e+09 -5.18105e+09 -5.18105e+09 -5.17769e+09 -5.17769e+09 -5.17399e+09 -5.17399e+09 -5.16997e+09 -5.16997e+09 -5.16563e+09 -5.16563e+09 -5.16097e+09 -5.16097e+09 -5.15599e+09 -5.15599e+09 -5.15071e+09 -5.15071e+09 -5.14512e+09 -5.14512e+09 -5.13924e+09 -5.13924e+09 -5.13306e+09 -5.13306e+09 -5.1266e+09 -5.1266e+09 -5.11985e+09 -5.11985e+09 -5.11282e+09 -5.11282e+09 -5.10551e+09 -5.10551e+09 -5.09793e+09 -5.09793e+09 -5.09009e+09 -5.09009e+09 -5.08198e+09 -5.08198e+09 -5.07362e+09 -5.07362e+09 -5.065e+09 -5.065e+09 -5.05613e+09 -5.05613e+09 -5.04701e+09 -5.04701e+09 -5.03766e+09 -5.03766e+09 -5.02806e+09 -5.02806e+09 -5.01823e+09 -5.01823e+09 -5.00817e+09 -5.00817e+09 -4.99789e+09 -4.99789e+09 -4.98738e+09 -4.98738e+09 -4.97666e+09 -4.97666e+09 -4.96572e+09 -4.96572e+09 -4.95457e+09 -4.95457e+09 -4.94321e+09 -4.94321e+09 -4.93165e+09 -4.93165e+09 -4.91989e+09 -4.91989e+09 -4.90793e+09 -4.90793e+09 -4.89578e+09 -4.89578e+09 -4.88344e+09 -4.88344e+09 -4.87092e+09 -4.87092e+09 -4.85821e+09 -4.85821e+09 -4.84533e+09 -4.84533e+09 -4.83227e+09 -4.83227e+09 -4.81904e+09 -4.81904e+09 -4.80563e+09 -4.80563e+09 -4.79207e+09 -4.79207e+09 -4.77834e+09 -4.77834e+09 -4.76445e+09 -4.76445e+09 -4.75041e+09 -4.75041e+09 -4.73621e+09 -4.73621e+09 -4.72187e+09 -4.72187e+09 -4.70738e+09 -4.70738e+09 -4.69274e+09 -4.69274e+09 -4.67796e+09 -4.67796e+09 -4.66305e+09 -4.66305e+09 -4.648e+09 -4.648e+09 -4.63282e+09 -4.63282e+09 -4.61752e+09 -4.61752e+09 -4.60208e+09 -4.60208e+09 -4.58652e+09 -4.58652e+09 -4.57085e+09 -4.57085e+09 -4.55505e+09 -4.55505e+09 -4.53914e+09 -4.53914e+09 -4.52312e+09 -4.52312e+09 -4.50699e+09 -4.50699e+09 -4.49076e+09 -4.49076e+09 -4.47441e+09 -4.47441e+09 -4.45797e+09 -4.45797e+09 -4.44143e+09 -4.44143e+09 -4.42479e+09 -4.42479e+09 -4.40806e+09 -4.40806e+09 -4.39124e+09 -4.39124e+09 -4.37433e+09 -4.37433e+09 -4.35733e+09 -4.35733e+09 -4.34025e+09 -4.34025e+09 -4.32309e+09 -4.32309e+09 -4.30584e+09 -4.30584e+09 -4.28852e+09 -4.28852e+09 -4.27113e+09 -4.27113e+09 -4.25366e+09 -4.25366e+09 -4.23613e+09 -4.23613e+09 -4.21852e+09 -4.21852e+09 -4.20085e+09 -4.20085e+09 -4.18312e+09 -4.18312e+09 -4.16532e+09 -4.16532e+09 -4.14747e+09 -4.14747e+09 -4.12956e+09 -4.12956e+09 -4.11159e+09 -4.11159e+09 -4.09357e+09 -4.09357e+09 -4.0755e+09 -4.0755e+09 -4.05738e+09 -4.05738e+09 -4.03921e+09 -4.03921e+09 -4.021e+09 -4.021e+09 -4.00275e+09 -4.00275e+09 -3.98445e+09 -3.98445e+09 -3.96612e+09 -3.96612e+09 -3.94775e+09 -3.94775e+09 -3.92934e+09 -3.92934e+09 -3.91089e+09 -3.91089e+09 -3.89242e+09 -3.89242e+09 -3.87392e+09 -3.87392e+09 -3.85538e+09 -3.85538e+09 -3.83682e+09 -3.83682e+09 -3.81824e+09 -3.81824e+09 -3.79963e+09 -3.79963e+09 -3.781e+09 -3.781e+09 -3.76235e+09 -3.76235e+09 -3.74368e+09 -3.74368e+09 -3.725e+09 -3.725e+09 -3.7063e+09 -3.7063e+09 -3.68758e+09 -3.68758e+09 -3.66886e+09 -3.66886e+09 -3.65012e+09 -3.65012e+09 -3.63137e+09 -3.63137e+09 -3.61262e+09 -3.61262e+09 -3.59386e+09 -3.59386e+09 -3.57509e+09 -3.57509e+09 -3.55633e+09 -3.55633e+09 -3.53756e+09 -3.53756e+09 -3.51878e+09 -3.51878e+09 -3.50001e+09 -3.50001e+09 -3.48125e+09 -3.48125e+09 -3.46248e+09 -3.46248e+09 -3.44372e+09 -3.44372e+09 -3.42497e+09 -3.42497e+09 -3.40622e+09 -3.40622e+09 -3.38748e+09 -3.38748e+09 -3.36875e+09 -3.36875e+09 -3.35003e+09 -3.35003e+09 -3.33133e+09 -3.33133e+09 -3.31264e+09 -3.31264e+09 -3.29396e+09 -3.29396e+09 -3.2753e+09 -3.2753e+09 -3.25665e+09 -3.25665e+09 -3.23802e+09 -3.23802e+09 -3.21941e+09 -3.21941e+09 -3.20082e+09 -3.20082e+09 -3.18226e+09 -3.18226e+09 -3.16371e+09 -3.16371e+09 -3.14519e+09 -3.14519e+09 -3.12669e+09 -3.12669e+09 -3.10821e+09 -3.10821e+09 -3.08976e+09 -3.08976e+09 -3.07134e+09 -3.07134e+09 -3.05295e+09 -3.05295e+09 -3.03459e+09 -3.03459e+09 -3.01625e+09 -3.01625e+09 -2.99795e+09 -2.99795e+09 -2.97968e+09 -2.97968e+09 -2.96144e+09 -2.96144e+09 -2.94323e+09 -2.94323e+09 -2.92506e+09 -2.92506e+09 -2.90692e+09 -2.90692e+09 -2.88882e+09 -2.88882e+09 -2.87075e+09 -2.87075e+09 -2.85272e+09 -2.85272e+09 -2.83473e+09 -2.83473e+09 -2.81678e+09 -2.81678e+09 -2.79887e+09 -2.79887e+09 -2.781e+09 -2.781e+09 -2.76317e+09 -2.76317e+09 -2.74538e+09 -2.74538e+09 -2.72763e+09 -2.72763e+09 -2.70992e+09 -2.70992e+09 -2.69226e+09 -2.69226e+09 -2.67465e+09 -2.67465e+09 -2.65708e+09 -2.65708e+09 -2.63955e+09 -2.63955e+09 -2.62207e+09 -2.62207e+09 -2.60464e+09 -2.60464e+09 -2.58725e+09 -2.58725e+09 -2.56991e+09 -2.56991e+09 -2.55262e+09 -2.55262e+09 -2.53538e+09 -2.53538e+09 -2.51819e+09 -2.51819e+09 -2.50105e+09 -2.50105e+09 -2.48396e+09 -2.48396e+09 -2.46692e+09 -2.46692e+09 -2.44993e+09 -2.44993e+09 -2.43299e+09 -2.43299e+09 -2.41611e+09 -2.41611e+09 -2.39928e+09 -2.39928e+09 -2.3825e+09 -2.3825e+09 -2.36577e+09 -2.36577e+09 -2.3491e+09 -2.3491e+09 -2.33249e+09 -2.33249e+09 -2.31593e+09 -2.31593e+09 -2.29942e+09 -2.29942e+09 -2.28297e+09 -2.28297e+09 -2.26658e+09 -2.26658e+09 -2.25024e+09 -2.25024e+09 -2.23396e+09 -2.23396e+09 -2.21773e+09 -2.21773e+09 -2.20157e+09 -2.20157e+09 -2.18546e+09 -2.18546e+09 -2.16941e+09 -2.16941e+09 -2.15341e+09 -2.15341e+09 -2.13748e+09 -2.13748e+09 -2.12161e+09 -2.12161e+09 -2.10579e+09 -2.10579e+09 -2.09003e+09 -2.09003e+09 -2.07434e+09 -2.07434e+09 -2.0587e+09 -2.0587e+09 -2.04312e+09 -2.04312e+09 -2.02761e+09 -2.02761e+09 -2.01215e+09 -2.01215e+09 -1.99676e+09 -1.99676e+09 -1.98142e+09 -1.98142e+09 -1.96615e+09 -1.96615e+09 -1.95094e+09 -1.95094e+09 -1.93579e+09 -1.93579e+09 -1.9207e+09 -1.9207e+09 -1.90567e+09 -1.90567e+09 -1.89071e+09 -1.89071e+09 -1.87581e+09 -1.87581e+09 -1.86097e+09 -1.86097e+09 -1.84619e+09 -1.84619e+09 -1.83148e+09 -1.83148e+09 -1.81682e+09 -1.81682e+09 -1.80224e+09 -1.80224e+09 -1.78771e+09 -1.78771e+09 -1.77325e+09 -1.77325e+09 -1.75885e+09 -1.75885e+09 -1.74451e+09 -1.74451e+09 -1.73024e+09 -1.73024e+09 -1.71603e+09 -1.71603e+09 -1.70188e+09 -1.70188e+09 -1.6878e+09 -1.6878e+09 -1.67378e+09 -1.67378e+09 -1.65982e+09 -1.65982e+09 -1.64593e+09 -1.64593e+09 -1.6321e+09 -1.6321e+09 -1.61834e+09 -1.61834e+09 -1.60464e+09 -1.60464e+09 -1.591e+09 -1.591e+09 -1.57743e+09 -1.57743e+09 -1.56392e+09 -1.56392e+09 -1.55047e+09 -1.55047e+09 -1.53709e+09 -1.53709e+09 -1.52377e+09 -1.52377e+09 -1.51052e+09 -1.51052e+09 -1.49733e+09 -1.49733e+09 -1.4842e+09 -1.4842e+09 -1.47114e+09 -1.47114e+09 -1.45814e+09 -1.45814e+09 -1.4452e+09 -1.4452e+09 -1.43233e+09 -1.43233e+09 -1.41952e+09 -1.41952e+09 -1.40677e+09 -1.40677e+09 -1.39409e+09 -1.39409e+09 -1.38147e+09 -1.38147e+09 -1.36892e+09 -1.36892e+09 -1.35643e+09 -1.35643e+09 -1.344e+09 -1.344e+09 -1.33163e+09 -1.33163e+09 -1.31933e+09 -1.31933e+09 -1.30709e+09 -1.30709e+09 -1.29491e+09 -1.29491e+09 -1.2828e+09 -1.2828e+09 -1.27075e+09 -1.27075e+09 -1.25876e+09 -1.25876e+09 -1.24683e+09 -1.24683e+09 -1.23497e+09 -1.23497e+09 -1.22317e+09 -1.22317e+09 -1.21143e+09 -1.21143e+09 -1.19975e+09 -1.19975e+09 -1.18813e+09 -1.18813e+09 -1.17658e+09 -1.17658e+09 -1.16509e+09 -1.16509e+09 -1.15366e+09 -1.15366e+09 -1.14229e+09 -1.14229e+09 -1.13098e+09 -1.13098e+09 -1.11973e+09 -1.11973e+09 -1.10854e+09 -1.10854e+09 -1.09742e+09 -1.09742e+09 -1.08635e+09 -1.08635e+09 -1.07535e+09 -1.07535e+09 -1.0644e+09 -1.0644e+09 -1.05352e+09 -1.05352e+09 -1.0427e+09 -1.0427e+09 -1.03193e+09 -1.03193e+09 -1.02123e+09 -1.02123e+09 -1.01058e+09 -1.01058e+09 -9.99998e+08 -9.99998e+08 -9.89471e+08 -9.89471e+08 -9.79004e+08 -9.79004e+08 -9.68596e+08 -9.68596e+08 -9.58246e+08 -9.58246e+08 -9.47955e+08 -9.47955e+08 -9.37722e+08 -9.37722e+08 -9.27547e+08 -9.27547e+08 -9.1743e+08 -9.1743e+08 -9.07371e+08 -9.07371e+08 -8.97369e+08 -8.97369e+08 -8.87425e+08 -8.87425e+08 -8.77538e+08 -8.77538e+08 -8.67708e+08 -8.67708e+08 -8.57935e+08 -8.57935e+08 -8.48218e+08 -8.48218e+08 -8.38558e+08 -8.38558e+08 -8.28954e+08 -8.28954e+08 -8.19406e+08 -8.19406e+08 -8.09913e+08 -8.09913e+08 -8.00476e+08 -8.00476e+08 -7.91095e+08 -7.91095e+08 -7.81769e+08 -7.81769e+08 -7.72498e+08 -7.72498e+08 -7.63281e+08 -7.63281e+08 -7.54119e+08 -7.54119e+08 -7.45011e+08 -7.45011e+08 -7.35958e+08 -7.35958e+08 -7.26958e+08 -7.26958e+08 -7.18012e+08 -7.18012e+08 -7.09119e+08 -7.09119e+08 -7.0028e+08 -7.0028e+08 -6.91494e+08 -6.91494e+08 -6.8276e+08 -6.8276e+08 -6.74079e+08 -6.74079e+08 -6.6545e+08 -6.6545e+08 -6.56874e+08 -6.56874e+08 -6.48349e+08 -6.48349e+08 -6.39876e+08 -6.39876e+08 -6.31455e+08 -6.31455e+08 -6.23085e+08 -6.23085e+08 -6.14765e+08 -6.14765e+08 -6.06497e+08 -6.06497e+08 -5.98279e+08 -5.98279e+08 -5.90111e+08 -5.90111e+08 -5.81994e+08 -5.81994e+08 -5.73926e+08 -5.73926e+08 -5.65908e+08 -5.65908e+08 -5.57939e+08 -5.57939e+08 -5.5002e+08 -5.5002e+08 -5.42149e+08 -5.42149e+08 -5.34327e+08 -5.34327e+08 -5.26554e+08 -5.26554e+08 -5.18828e+08 -5.18828e+08 -5.11151e+08 -5.11151e+08 -5.03522e+08 -5.03522e+08 -4.9594e+08 -4.9594e+08 -4.88406e+08 -4.88406e+08 -4.80918e+08 -4.80918e+08 -4.73477e+08 -4.73477e+08 -4.66083e+08 -4.66083e+08 -4.58736e+08 -4.58736e+08 -4.51434e+08 -4.51434e+08 -4.44179e+08 -4.44179e+08 -4.36969e+08 -4.36969e+08 -4.29804e+08 -4.29804e+08 -4.22685e+08 -4.22685e+08 -4.1561e+08 -4.1561e+08 -4.08581e+08 -4.08581e+08 -4.01596e+08 -4.01596e+08 -3.94655e+08 -3.94655e+08 -3.87758e+08 -3.87758e+08 -3.80905e+08 -3.80905e+08 -3.74096e+08 -3.74096e+08 -3.6733e+08 -3.6733e+08 -3.60607e+08 -3.60607e+08 -3.53927e+08 -3.53927e+08 -3.47289e+08 -3.47289e+08 -3.40694e+08 -3.40694e+08 -3.34141e+08 -3.34141e+08 -3.2763e+08 -3.2763e+08 -3.21161e+08 -3.21161e+08 -3.14733e+08 -3.14733e+08 -3.08347e+08 -3.08347e+08 -3.02001e+08 -3.02001e+08 -2.95697e+08 -2.95697e+08 -2.89432e+08 -2.89432e+08 -2.83209e+08 -2.83209e+08 -2.77025e+08 -2.77025e+08 -2.70881e+08 -2.70881e+08 -2.64777e+08 -2.64777e+08 -2.58712e+08 -2.58712e+08 -2.52687e+08 -2.52687e+08 -2.467e+08 -2.467e+08 -2.40752e+08 -2.40752e+08 -2.34843e+08 -2.34843e+08 -2.28972e+08 -2.28972e+08 -2.23139e+08 -2.23139e+08 -2.17344e+08 -2.17344e+08 -2.11586e+08 -2.11586e+08 -2.05866e+08 -2.05866e+08 -2.00183e+08 -2.00183e+08 -1.94537e+08 -1.94537e+08 -1.88928e+08 -1.88928e+08 -1.83355e+08 -1.83355e+08 -1.77819e+08 -1.77819e+08 -1.72318e+08 -1.72318e+08 -1.66854e+08 -1.66854e+08 -1.61425e+08 -1.61425e+08 -1.56031e+08 -1.56031e+08 -1.50673e+08 -1.50673e+08 -1.4535e+08 -1.4535e+08 -1.40061e+08 -1.40061e+08 -1.34808e+08 -1.34808e+08 -1.29588e+08 -1.29588e+08 -1.24403e+08 -1.24403e+08 -1.19251e+08 -1.19251e+08 -1.14133e+08 -1.14133e+08 -1.09049e+08 -1.09049e+08 -1.03998e+08 -1.03998e+08 -9.89802e+07 -9.89802e+07 -9.39952e+07 -9.39952e+07 -8.90429e+07 -8.90429e+07 -8.4123e+07 -8.4123e+07 -7.92354e+07 -7.92354e+07 -7.43799e+07 -7.43799e+07 -6.95562e+07 -6.95562e+07 -6.47641e+07 -6.47641e+07 -6.00036e+07 -6.00036e+07 -5.52742e+07 -5.52742e+07 -5.05759e+07 -5.05759e+07 -4.59085e+07 -4.59085e+07 -4.12717e+07 -4.12717e+07 -3.66654e+07 -3.66654e+07 -3.20893e+07 -3.20893e+07 -2.75433e+07 -2.75433e+07 -2.30271e+07 -2.30271e+07 -1.85406e+07 -1.85406e+07 -1.40836e+07 -1.40836e+07 -9.65589e+06 -9.65589e+06 -5.25726e+06 -5.25726e+06 -887532 -887532 3.45348e+06 3.45348e+06 7.76597e+06 7.76597e+06 1.20501e+07 1.20501e+07 1.63061e+07 1.63061e+07 2.05341e+07 2.05341e+07 2.47344e+07 2.47344e+07 2.89071e+07 2.89071e+07 3.30523e+07 3.30523e+07 3.71703e+07 3.71703e+07 4.12613e+07 4.12613e+07 4.53254e+07 4.53254e+07 4.93628e+07 4.93628e+07 5.33737e+07 5.33737e+07 5.73582e+07 5.73582e+07 6.13166e+07 6.13166e+07 6.5249e+07 6.5249e+07 6.91556e+07 6.91556e+07 7.30366e+07 7.30366e+07 7.68921e+07 7.68921e+07 8.07223e+07 8.07223e+07 8.45274e+07 8.45274e+07 8.83075e+07 8.83075e+07 9.20629e+07 9.20629e+07 9.57936e+07 9.57936e+07 9.94999e+07 9.94999e+07 1.03182e+08 1.03182e+08 1.0684e+08 1.0684e+08 1.10474e+08 1.10474e+08 1.14084e+08 1.14084e+08 1.1767e+08 1.1767e+08 1.21233e+08 1.21233e+08 1.24773e+08 1.24773e+08 1.2829e+08 1.2829e+08 1.31783e+08 1.31783e+08 1.35254e+08 1.35254e+08 1.38702e+08 1.38702e+08 1.42128e+08 1.42128e+08 1.45531e+08 1.45531e+08 1.48912e+08 1.48912e+08 1.5227e+08 1.5227e+08 1.55607e+08 1.55607e+08 1.58922e+08 1.58922e+08 1.62216e+08 1.62216e+08 1.65488e+08 1.65488e+08 1.68739e+08 1.68739e+08 1.71968e+08 1.71968e+08 1.75177e+08 1.75177e+08 1.78364e+08 1.78364e+08 1.81531e+08 1.81531e+08 1.84678e+08 1.84678e+08 1.87803e+08 1.87803e+08 1.90909e+08 1.90909e+08 1.93994e+08 1.93994e+08 1.97059e+08 1.97059e+08 2.00104e+08 2.00104e+08 2.0313e+08 2.0313e+08 2.06136e+08 2.06136e+08 2.09122e+08 2.09122e+08 2.12089e+08 2.12089e+08 2.15037e+08 2.15037e+08 2.17965e+08 2.17965e+08 2.20875e+08 2.20875e+08 2.23766e+08 2.23766e+08 2.26638e+08 2.26638e+08 2.29491e+08 2.29491e+08 2.32326e+08 2.32326e+08 2.35142e+08 2.35142e+08 2.37941e+08 2.37941e+08 2.40721e+08 2.40721e+08 2.43483e+08 2.43483e+08 2.46227e+08 2.46227e+08 2.48954e+08 2.48954e+08 2.51663e+08 2.51663e+08 2.54354e+08 2.54354e+08 2.57028e+08 2.57028e+08 2.59685e+08 2.59685e+08 2.62325e+08 2.62325e+08 2.64947e+08 2.64947e+08 2.67553e+08 2.67553e+08 2.70142e+08 2.70142e+08 2.72714e+08 2.72714e+08 2.75269e+08 2.75269e+08 2.77808e+08 2.77808e+08 2.80331e+08 2.80331e+08 2.82837e+08 2.82837e+08 2.85327e+08 2.85327e+08 2.87801e+08 2.87801e+08 2.90259e+08 2.90259e+08 2.92701e+08 2.92701e+08 2.95128e+08 2.95128e+08 2.97538e+08 2.97538e+08 2.99934e+08 2.99934e+08 3.02313e+08 3.02313e+08 3.04678e+08 3.04678e+08 3.07027e+08 3.07027e+08 3.09361e+08 3.09361e+08 3.1168e+08 3.1168e+08 3.13983e+08 3.13983e+08 3.16272e+08 3.16272e+08 3.18547e+08 3.18547e+08 3.20806e+08 3.20806e+08 3.23051e+08 3.23051e+08 3.25281e+08 3.25281e+08 3.27497e+08 3.27497e+08 3.29699e+08 3.29699e+08 3.31886e+08 3.31886e+08 3.34059e+08 3.34059e+08 3.36218e+08 3.36218e+08 3.38364e+08 3.38364e+08 3.40495e+08 3.40495e+08 3.42612e+08 3.42612e+08 3.44716e+08 3.44716e+08 3.46806e+08 3.46806e+08 3.48882e+08 3.48882e+08 3.50945e+08 3.50945e+08 3.52994e+08 3.52994e+08 3.5503e+08 3.5503e+08 3.57053e+08 3.57053e+08 3.59062e+08 3.59062e+08 3.61059e+08 3.61059e+08 3.63042e+08 3.63042e+08 3.65013e+08 3.65013e+08 3.6697e+08 3.6697e+08 3.68915e+08 3.68915e+08 3.70847e+08 3.70847e+08 3.72766e+08 3.72766e+08 3.74672e+08 3.74672e+08 3.76566e+08 3.76566e+08 3.78448e+08 3.78448e+08 3.80317e+08 3.80317e+08 3.82173e+08 3.82173e+08 3.84018e+08 3.84018e+08 3.8585e+08 3.8585e+08 3.8767e+08 3.8767e+08 3.89478e+08 3.89478e+08 3.91273e+08 3.91273e+08 3.93057e+08 3.93057e+08 3.94829e+08 3.94829e+08 3.96589e+08 3.96589e+08 3.98337e+08 3.98337e+08 4.00074e+08 4.00074e+08 4.01798e+08 4.01798e+08 4.03511e+08 4.03511e+08 4.05213e+08 4.05213e+08 4.06902e+08 4.06902e+08 4.08581e+08 4.08581e+08 4.10248e+08 4.10248e+08 4.11903e+08 4.11903e+08 4.13548e+08 4.13548e+08 4.1518e+08 4.1518e+08 4.16802e+08 4.16802e+08 4.18413e+08 4.18413e+08 4.20012e+08 4.20012e+08 4.216e+08 4.216e+08 4.23177e+08 4.23177e+08 4.24743e+08 4.24743e+08 4.26298e+08 4.26298e+08 4.27843e+08 4.27843e+08 4.29376e+08 4.29376e+08 4.30898e+08 4.30898e+08 4.3241e+08 4.3241e+08 4.33911e+08 4.33911e+08 4.35401e+08 4.35401e+08 4.36881e+08 4.36881e+08 4.38349e+08 4.38349e+08 4.39808e+08 4.39808e+08 4.41255e+08 4.41255e+08 4.42692e+08 4.42692e+08 4.44119e+08 4.44119e+08 4.45535e+08 4.45535e+08 4.4694e+08 4.4694e+08 4.48336e+08 4.48336e+08 4.4972e+08 4.4972e+08 4.51095e+08 4.51095e+08 4.52459e+08 4.52459e+08 4.53813e+08 4.53813e+08 4.55156e+08 4.55156e+08 4.56489e+08 4.56489e+08 4.57813e+08 4.57813e+08 4.59125e+08 4.59125e+08 4.60428e+08 4.60428e+08 4.61721e+08 4.61721e+08 4.63003e+08 4.63003e+08 4.64275e+08 4.64275e+08 4.65538e+08 4.65538e+08 4.6679e+08 4.6679e+08 4.68032e+08 4.68032e+08 4.69264e+08 4.69264e+08 4.70486e+08 4.70486e+08 4.71698e+08 4.71698e+08 4.72901e+08 4.72901e+08 4.74093e+08 4.74093e+08 4.75275e+08 4.75275e+08 4.76448e+08 4.76448e+08 4.7761e+08 4.7761e+08 4.78763e+08 4.78763e+08 4.79906e+08 4.79906e+08 4.81039e+08 4.81039e+08 4.82162e+08 4.82162e+08 4.83275e+08 4.83275e+08 4.84378e+08 4.84378e+08 4.85472e+08 4.85472e+08 4.86556e+08 4.86556e+08 4.8763e+08 4.8763e+08 4.88694e+08 4.88694e+08 4.89748e+08 4.89748e+08 4.90793e+08 4.90793e+08 4.91828e+08 4.91828e+08 4.92853e+08 4.92853e+08 4.93868e+08 4.93868e+08 4.94874e+08 4.94874e+08 4.95869e+08 4.95869e+08 4.96855e+08 4.96855e+08 4.97832e+08 4.97832e+08 4.98798e+08 4.98798e+08 4.99755e+08 4.99755e+08 5.00702e+08 5.00702e+08 5.0164e+08 5.0164e+08 5.02567e+08 5.02567e+08 5.03485e+08 5.03485e+08 5.04393e+08 5.04393e+08 5.05291e+08 5.05291e+08 5.0618e+08 5.0618e+08 5.07059e+08 5.07059e+08 5.07928e+08 5.07928e+08 5.08787e+08 5.08787e+08 5.09636e+08 5.09636e+08 5.10476e+08 5.10476e+08 5.11306e+08 5.11306e+08 5.12126e+08 5.12126e+08 5.12936e+08 5.12936e+08 5.13736e+08 5.13736e+08 5.14527e+08 5.14527e+08 5.15308e+08 5.15308e+08 5.16079e+08 5.16079e+08 5.1684e+08 5.1684e+08 5.17591e+08 5.17591e+08 5.18332e+08 5.18332e+08 5.19063e+08 5.19063e+08 5.19785e+08 5.19785e+08 5.20496e+08 5.20496e+08 5.21198e+08 5.21198e+08 5.21889e+08 5.21889e+08 5.22571e+08 5.22571e+08 5.23242e+08 5.23242e+08 5.23904e+08 5.23904e+08 5.24555e+08 5.24555e+08 5.25197e+08 5.25197e+08 5.25828e+08 5.25828e+08 5.26449e+08 5.26449e+08 5.27061e+08 5.27061e+08 5.27662e+08 5.27662e+08 5.28253e+08 5.28253e+08 5.28833e+08 5.28833e+08 5.29404e+08 5.29404e+08 5.29964e+08 5.29964e+08 5.30514e+08 5.30514e+08 5.31054e+08 5.31054e+08 5.31584e+08 5.31584e+08 5.32103e+08 5.32103e+08 5.32612e+08 5.32612e+08 5.3311e+08 5.3311e+08 5.33599e+08 5.33599e+08 5.34076e+08 5.34076e+08 5.34544e+08 5.34544e+08 5.35e+08 5.35e+08 5.35447e+08 5.35447e+08 5.35883e+08 5.35883e+08 5.36308e+08 5.36308e+08 5.36723e+08 5.36723e+08 5.37127e+08 5.3712