# vtk DataFile Version 3.0
#This file was generated by the deal.II library on 2020/9/1 at 15:06:56
ASCII
DATASET UNSTRUCTURED_GRID

POINTS 2048 double
1.5 0 0
1.59619 0 0
1.59619 0 0
1.69238 0 0
1.69238 0 0
1.78857 0 0
1.78857 0 0
1.88477 0 0
1.88477 0 0
1.98096 0 0
1.98096 0 0
2.07715 0 0
2.07715 0 0
2.17334 0 0
2.17334 0 0
2.26953 0 0
2.26953 0 0
2.36572 0 0
2.36572 0 0
2.46191 0 0
2.46191 0 0
2.55811 0 0
2.55811 0 0
2.6543 0 0
2.6543 0 0
2.75049 0 0
2.75049 0 0
2.84668 0 0
2.84668 0 0
2.94287 0 0
2.94287 0 0
3.03906 0 0
3.03906 0 0
3.13525 0 0
3.13525 0 0
3.23145 0 0
3.23145 0 0
3.32764 0 0
3.32764 0 0
3.42383 0 0
3.42383 0 0
3.52002 0 0
3.52002 0 0
3.61621 0 0
3.61621 0 0
3.7124 0 0
3.7124 0 0
3.80859 0 0
3.80859 0 0
3.90479 0 0
3.90479 0 0
4.00098 0 0
4.00098 0 0
4.09717 0 0
4.09717 0 0
4.19336 0 0
4.19336 0 0
4.28955 0 0
4.28955 0 0
4.38574 0 0
4.38574 0 0
4.48193 0 0
4.48193 0 0
4.57812 0 0
4.57812 0 0
4.67432 0 0
4.67432 0 0
4.77051 0 0
4.77051 0 0
4.8667 0 0
4.8667 0 0
4.96289 0 0
4.96289 0 0
5.05908 0 0
5.05908 0 0
5.15527 0 0
5.15527 0 0
5.25146 0 0
5.25146 0 0
5.34766 0 0
5.34766 0 0
5.44385 0 0
5.44385 0 0
5.54004 0 0
5.54004 0 0
5.63623 0 0
5.63623 0 0
5.73242 0 0
5.73242 0 0
5.82861 0 0
5.82861 0 0
5.9248 0 0
5.9248 0 0
6.021 0 0
6.021 0 0
6.11719 0 0
6.11719 0 0
6.21338 0 0
6.21338 0 0
6.30957 0 0
6.30957 0 0
6.40576 0 0
6.40576 0 0
6.50195 0 0
6.50195 0 0
6.59814 0 0
6.59814 0 0
6.69434 0 0
6.69434 0 0
6.79053 0 0
6.79053 0 0
6.88672 0 0
6.88672 0 0
6.98291 0 0
6.98291 0 0
7.0791 0 0
7.0791 0 0
7.17529 0 0
7.17529 0 0
7.27148 0 0
7.27148 0 0
7.36768 0 0
7.36768 0 0
7.46387 0 0
7.46387 0 0
7.56006 0 0
7.56006 0 0
7.65625 0 0
7.65625 0 0
7.75244 0 0
7.75244 0 0
7.84863 0 0
7.84863 0 0
7.94482 0 0
7.94482 0 0
8.04102 0 0
8.04102 0 0
8.13721 0 0
8.13721 0 0
8.2334 0 0
8.2334 0 0
8.32959 0 0
8.32959 0 0
8.42578 0 0
8.42578 0 0
8.52197 0 0
8.52197 0 0
8.61816 0 0
8.61816 0 0
8.71436 0 0
8.71436 0 0
8.81055 0 0
8.81055 0 0
8.90674 0 0
8.90674 0 0
9.00293 0 0
9.00293 0 0
9.09912 0 0
9.09912 0 0
9.19531 0 0
9.19531 0 0
9.2915 0 0
9.2915 0 0
9.3877 0 0
9.3877 0 0
9.48389 0 0
9.48389 0 0
9.58008 0 0
9.58008 0 0
9.67627 0 0
9.67627 0 0
9.77246 0 0
9.77246 0 0
9.86865 0 0
9.86865 0 0
9.96484 0 0
9.96484 0 0
10.061 0 0
10.061 0 0
10.1572 0 0
10.1572 0 0
10.2534 0 0
10.2534 0 0
10.3496 0 0
10.3496 0 0
10.4458 0 0
10.4458 0 0
10.542 0 0
10.542 0 0
10.6382 0 0
10.6382 0 0
10.7344 0 0
10.7344 0 0
10.8306 0 0
10.8306 0 0
10.9268 0 0
10.9268 0 0
11.0229 0 0
11.0229 0 0
11.1191 0 0
11.1191 0 0
11.2153 0 0
11.2153 0 0
11.3115 0 0
11.3115 0 0
11.4077 0 0
11.4077 0 0
11.5039 0 0
11.5039 0 0
11.6001 0 0
11.6001 0 0
11.6963 0 0
11.6963 0 0
11.7925 0 0
11.7925 0 0
11.8887 0 0
11.8887 0 0
11.9849 0 0
11.9849 0 0
12.0811 0 0
12.0811 0 0
12.1772 0 0
12.1772 0 0
12.2734 0 0
12.2734 0 0
12.3696 0 0
12.3696 0 0
12.4658 0 0
12.4658 0 0
12.562 0 0
12.562 0 0
12.6582 0 0
12.6582 0 0
12.7544 0 0
12.7544 0 0
12.8506 0 0
12.8506 0 0
12.9468 0 0
12.9468 0 0
13.043 0 0
13.043 0 0
13.1392 0 0
13.1392 0 0
13.2354 0 0
13.2354 0 0
13.3315 0 0
13.3315 0 0
13.4277 0 0
13.4277 0 0
13.5239 0 0
13.5239 0 0
13.6201 0 0
13.6201 0 0
13.7163 0 0
13.7163 0 0
13.8125 0 0
13.8125 0 0
13.9087 0 0
13.9087 0 0
14.0049 0 0
14.0049 0 0
14.1011 0 0
14.1011 0 0
14.1973 0 0
14.1973 0 0
14.2935 0 0
14.2935 0 0
14.3896 0 0
14.3896 0 0
14.4858 0 0
14.4858 0 0
14.582 0 0
14.582 0 0
14.6782 0 0
14.6782 0 0
14.7744 0 0
14.7744 0 0
14.8706 0 0
14.8706 0 0
14.9668 0 0
14.9668 0 0
15.063 0 0
15.063 0 0
15.1592 0 0
15.1592 0 0
15.2554 0 0
15.2554 0 0
15.3516 0 0
15.3516 0 0
15.4478 0 0
15.4478 0 0
15.5439 0 0
15.5439 0 0
15.6401 0 0
15.6401 0 0
15.7363 0 0
15.7363 0 0
15.8325 0 0
15.8325 0 0
15.9287 0 0
15.9287 0 0
16.0249 0 0
16.0249 0 0
16.1211 0 0
16.1211 0 0
16.2173 0 0
16.2173 0 0
16.3135 0 0
16.3135 0 0
16.4097 0 0
16.4097 0 0
16.5059 0 0
16.5059 0 0
16.6021 0 0
16.6021 0 0
16.6982 0 0
16.6982 0 0
16.7944 0 0
16.7944 0 0
16.8906 0 0
16.8906 0 0
16.9868 0 0
16.9868 0 0
17.083 0 0
17.083 0 0
17.1792 0 0
17.1792 0 0
17.2754 0 0
17.2754 0 0
17.3716 0 0
17.3716 0 0
17.4678 0 0
17.4678 0 0
17.564 0 0
17.564 0 0
17.6602 0 0
17.6602 0 0
17.7563 0 0
17.7563 0 0
17.8525 0 0
17.8525 0 0
17.9487 0 0
17.9487 0 0
18.0449 0 0
18.0449 0 0
18.1411 0 0
18.1411 0 0
18.2373 0 0
18.2373 0 0
18.3335 0 0
18.3335 0 0
18.4297 0 0
18.4297 0 0
18.5259 0 0
18.5259 0 0
18.6221 0 0
18.6221 0 0
18.7183 0 0
18.7183 0 0
18.8145 0 0
18.8145 0 0
18.9106 0 0
18.9106 0 0
19.0068 0 0
19.0068 0 0
19.103 0 0
19.103 0 0
19.1992 0 0
19.1992 0 0
19.2954 0 0
19.2954 0 0
19.3916 0 0
19.3916 0 0
19.4878 0 0
19.4878 0 0
19.584 0 0
19.584 0 0
19.6802 0 0
19.6802 0 0
19.7764 0 0
19.7764 0 0
19.8726 0 0
19.8726 0 0
19.9688 0 0
19.9688 0 0
20.0649 0 0
20.0649 0 0
20.1611 0 0
20.1611 0 0
20.2573 0 0
20.2573 0 0
20.3535 0 0
20.3535 0 0
20.4497 0 0
20.4497 0 0
20.5459 0 0
20.5459 0 0
20.6421 0 0
20.6421 0 0
20.7383 0 0
20.7383 0 0
20.8345 0 0
20.8345 0 0
20.9307 0 0
20.9307 0 0
21.0269 0 0
21.0269 0 0
21.123 0 0
21.123 0 0
21.2192 0 0
21.2192 0 0
21.3154 0 0
21.3154 0 0
21.4116 0 0
21.4116 0 0
21.5078 0 0
21.5078 0 0
21.604 0 0
21.604 0 0
21.7002 0 0
21.7002 0 0
21.7964 0 0
21.7964 0 0
21.8926 0 0
21.8926 0 0
21.9888 0 0
21.9888 0 0
22.085 0 0
22.085 0 0
22.1812 0 0
22.1812 0 0
22.2773 0 0
22.2773 0 0
22.3735 0 0
22.3735 0 0
22.4697 0 0
22.4697 0 0
22.5659 0 0
22.5659 0 0
22.6621 0 0
22.6621 0 0
22.7583 0 0
22.7583 0 0
22.8545 0 0
22.8545 0 0
22.9507 0 0
22.9507 0 0
23.0469 0 0
23.0469 0 0
23.1431 0 0
23.1431 0 0
23.2393 0 0
23.2393 0 0
23.3354 0 0
23.3354 0 0
23.4316 0 0
23.4316 0 0
23.5278 0 0
23.5278 0 0
23.624 0 0
23.624 0 0
23.7202 0 0
23.7202 0 0
23.8164 0 0
23.8164 0 0
23.9126 0 0
23.9126 0 0
24.0088 0 0
24.0088 0 0
24.105 0 0
24.105 0 0
24.2012 0 0
24.2012 0 0
24.2974 0 0
24.2974 0 0
24.3936 0 0
24.3936 0 0
24.4897 0 0
24.4897 0 0
24.5859 0 0
24.5859 0 0
24.6821 0 0
24.6821 0 0
24.7783 0 0
24.7783 0 0
24.8745 0 0
24.8745 0 0
24.9707 0 0
24.9707 0 0
25.0669 0 0
25.0669 0 0
25.1631 0 0
25.1631 0 0
25.2593 0 0
25.2593 0 0
25.3555 0 0
25.3555 0 0
25.4517 0 0
25.4517 0 0
25.5479 0 0
25.5479 0 0
25.644 0 0
25.644 0 0
25.7402 0 0
25.7402 0 0
25.8364 0 0
25.8364 0 0
25.9326 0 0
25.9326 0 0
26.0288 0 0
26.0288 0 0
26.125 0 0
26.125 0 0
26.2212 0 0
26.2212 0 0
26.3174 0 0
26.3174 0 0
26.4136 0 0
26.4136 0 0
26.5098 0 0
26.5098 0 0
26.606 0 0
26.606 0 0
26.7021 0 0
26.7021 0 0
26.7983 0 0
26.7983 0 0
26.8945 0 0
26.8945 0 0
26.9907 0 0
26.9907 0 0
27.0869 0 0
27.0869 0 0
27.1831 0 0
27.1831 0 0
27.2793 0 0
27.2793 0 0
27.3755 0 0
27.3755 0 0
27.4717 0 0
27.4717 0 0
27.5679 0 0
27.5679 0 0
27.6641 0 0
27.6641 0 0
27.7603 0 0
27.7603 0 0
27.8564 0 0
27.8564 0 0
27.9526 0 0
27.9526 0 0
28.0488 0 0
28.0488 0 0
28.145 0 0
28.145 0 0
28.2412 0 0
28.2412 0 0
28.3374 0 0
28.3374 0 0
28.4336 0 0
28.4336 0 0
28.5298 0 0
28.5298 0 0
28.626 0 0
28.626 0 0
28.7222 0 0
28.7222 0 0
28.8184 0 0
28.8184 0 0
28.9146 0 0
28.9146 0 0
29.0107 0 0
29.0107 0 0
29.1069 0 0
29.1069 0 0
29.2031 0 0
29.2031 0 0
29.2993 0 0
29.2993 0 0
29.3955 0 0
29.3955 0 0
29.4917 0 0
29.4917 0 0
29.5879 0 0
29.5879 0 0
29.6841 0 0
29.6841 0 0
29.7803 0 0
29.7803 0 0
29.8765 0 0
29.8765 0 0
29.9727 0 0
29.9727 0 0
30.0688 0 0
30.0688 0 0
30.165 0 0
30.165 0 0
30.2612 0 0
30.2612 0 0
30.3574 0 0
30.3574 0 0
30.4536 0 0
30.4536 0 0
30.5498 0 0
30.5498 0 0
30.646 0 0
30.646 0 0
30.7422 0 0
30.7422 0 0
30.8384 0 0
30.8384 0 0
30.9346 0 0
30.9346 0 0
31.0308 0 0
31.0308 0 0
31.127 0 0
31.127 0 0
31.2231 0 0
31.2231 0 0
31.3193 0 0
31.3193 0 0
31.4155 0 0
31.4155 0 0
31.5117 0 0
31.5117 0 0
31.6079 0 0
31.6079 0 0
31.7041 0 0
31.7041 0 0
31.8003 0 0
31.8003 0 0
31.8965 0 0
31.8965 0 0
31.9927 0 0
31.9927 0 0
32.0889 0 0
32.0889 0 0
32.1851 0 0
32.1851 0 0
32.2812 0 0
32.2812 0 0
32.3774 0 0
32.3774 0 0
32.4736 0 0
32.4736 0 0
32.5698 0 0
32.5698 0 0
32.666 0 0
32.666 0 0
32.7622 0 0
32.7622 0 0
32.8584 0 0
32.8584 0 0
32.9546 0 0
32.9546 0 0
33.0508 0 0
33.0508 0 0
33.147 0 0
33.147 0 0
33.2432 0 0
33.2432 0 0
33.3394 0 0
33.3394 0 0
33.4355 0 0
33.4355 0 0
33.5317 0 0
33.5317 0 0
33.6279 0 0
33.6279 0 0
33.7241 0 0
33.7241 0 0
33.8203 0 0
33.8203 0 0
33.9165 0 0
33.9165 0 0
34.0127 0 0
34.0127 0 0
34.1089 0 0
34.1089 0 0
34.2051 0 0
34.2051 0 0
34.3013 0 0
34.3013 0 0
34.3975 0 0
34.3975 0 0
34.4937 0 0
34.4937 0 0
34.5898 0 0
34.5898 0 0
34.686 0 0
34.686 0 0
34.7822 0 0
34.7822 0 0
34.8784 0 0
34.8784 0 0
34.9746 0 0
34.9746 0 0
35.0708 0 0
35.0708 0 0
35.167 0 0
35.167 0 0
35.2632 0 0
35.2632 0 0
35.3594 0 0
35.3594 0 0
35.4556 0 0
35.4556 0 0
35.5518 0 0
35.5518 0 0
35.6479 0 0
35.6479 0 0
35.7441 0 0
35.7441 0 0
35.8403 0 0
35.8403 0 0
35.9365 0 0
35.9365 0 0
36.0327 0 0
36.0327 0 0
36.1289 0 0
36.1289 0 0
36.2251 0 0
36.2251 0 0
36.3213 0 0
36.3213 0 0
36.4175 0 0
36.4175 0 0
36.5137 0 0
36.5137 0 0
36.6099 0 0
36.6099 0 0
36.7061 0 0
36.7061 0 0
36.8022 0 0
36.8022 0 0
36.8984 0 0
36.8984 0 0
36.9946 0 0
36.9946 0 0
37.0908 0 0
37.0908 0 0
37.187 0 0
37.187 0 0
37.2832 0 0
37.2832 0 0
37.3794 0 0
37.3794 0 0
37.4756 0 0
37.4756 0 0
37.5718 0 0
37.5718 0 0
37.668 0 0
37.668 0 0
37.7642 0 0
37.7642 0 0
37.8604 0 0
37.8604 0 0
37.9565 0 0
37.9565 0 0
38.0527 0 0
38.0527 0 0
38.1489 0 0
38.1489 0 0
38.2451 0 0
38.2451 0 0
38.3413 0 0
38.3413 0 0
38.4375 0 0
38.4375 0 0
38.5337 0 0
38.5337 0 0
38.6299 0 0
38.6299 0 0
38.7261 0 0
38.7261 0 0
38.8223 0 0
38.8223 0 0
38.9185 0 0
38.9185 0 0
39.0146 0 0
39.0146 0 0
39.1108 0 0
39.1108 0 0
39.207 0 0
39.207 0 0
39.3032 0 0
39.3032 0 0
39.3994 0 0
39.3994 0 0
39.4956 0 0
39.4956 0 0
39.5918 0 0
39.5918 0 0
39.688 0 0
39.688 0 0
39.7842 0 0
39.7842 0 0
39.8804 0 0
39.8804 0 0
39.9766 0 0
39.9766 0 0
40.0728 0 0
40.0728 0 0
40.1689 0 0
40.1689 0 0
40.2651 0 0
40.2651 0 0
40.3613 0 0
40.3613 0 0
40.4575 0 0
40.4575 0 0
40.5537 0 0
40.5537 0 0
40.6499 0 0
40.6499 0 0
40.7461 0 0
40.7461 0 0
40.8423 0 0
40.8423 0 0
40.9385 0 0
40.9385 0 0
41.0347 0 0
41.0347 0 0
41.1309 0 0
41.1309 0 0
41.2271 0 0
41.2271 0 0
[...]
POINT_DATA 2048
SCALARS solution_0 double 1
LOOKUP_TABLE default
17478.6 17319.2 17319.2 17213.7 17213.7 17151.6 17151.6 17124.2 17124.2 17124.8 17124.8 17147.9 17147.9 17189 17189 17244.5 17244.5 17311.4 17311.4 17387.2 17387.2 17470 17470 17558 17558 17650 17650 17744.6 17744.6 17841 17841 17938.2 17938.2 18035.8 18035.8 18133 18133 18229.4 18229.4 18324.6 18324.6 18418.2 18418.2 18510 18510 18599.7 18599.7 18687.1 18687.1 18772.1 18772.1 18854.6 18854.6 18934.3 18934.3 19011.3 19011.3 19085.5 19085.5 19156.8 19156.8 19225.1 19225.1 19290.5 19290.5 19352.9 19352.9 19412.3 19412.3 19468.8 19468.8 19522.3 19522.3 19572.8 19572.8 19620.3 19620.3 19665 19665 19706.7 19706.7 19745.5 19745.5 19781.5 19781.5 19814.7 19814.7 19845.1 19845.1 19872.7 19872.7 19897.7 19897.7 19919.9 19919.9 19939.6 19939.6 19956.6 19956.6 19971.1 19971.1 19983 19983 19992.5 19992.5 19999.6 19999.6 20004.3 20004.3 20006.6 20006.6 20006.6 20006.6 20004.4 20004.4 19999.9 19999.9 19993.2 19993.2 19984.5 19984.5 19973.6 19973.6 19960.6 19960.6 19945.6 19945.6 19928.7 19928.7 19909.8 19909.8 19889 19889 19866.3 19866.3 19841.8 19841.8 19815.5 19815.5 19787.5 19787.5 19757.7 19757.7 19726.3 19726.3 19693.2 19693.2 19658.5 19658.5 19622.3 19622.3 19584.5 19584.5 19545.1 19545.1 19504.4 19504.4 19462.1 19462.1 19418.5 19418.5 19373.5 19373.5 19327.2 19327.2 19279.5 19279.5 19230.5 19230.5 19180.3 19180.3 19128.9 19128.9 19076.3 19076.3 19022.5 19022.5 18967.6 18967.6 18911.5 18911.5 18854.4 18854.4 18796.2 18796.2 18737 18737 18676.8 18676.8 18615.7 18615.7 18553.5 18553.5 18490.5 18490.5 18426.5 18426.5 18361.7 18361.7 18296 18296 18229.5 18229.5 18162.1 18162.1 18094 18094 18025.2 18025.2 17955.5 17955.5 17885.2 17885.2 17814.2 17814.2 17742.5 17742.5 17670.1 17670.1 17597.1 17597.1 17523.5 17523.5 17449.3 17449.3 17374.5 17374.5 17299.2 17299.2 17223.3 17223.3 17146.9 17146.9 17070 17070 16992.6 16992.6 16914.7 16914.7 16836.4 16836.4 16757.7 16757.7 16678.5 16678.5 16599 16599 16519 16519 16438.7 16438.7 16358.1 16358.1 16277.1 16277.1 16195.7 16195.7 16114.1 16114.1 16032.2 16032.2 15950 15950 15867.5 15867.5 15784.8 15784.8 15701.9 15701.9 15618.7 15618.7 15535.3 15535.3 15451.7 15451.7 15368 15368 15284 15284 15199.9 15199.9 15115.7 15115.7 15031.3 15031.3 14946.8 14946.8 14862.2 14862.2 14777.5 14777.5 14692.6 14692.6 14607.7 14607.7 14522.8 14522.8 14437.8 14437.8 14352.7 14352.7 14267.6 14267.6 14182.4 14182.4 14097.3 14097.3 14012.1 14012.1 13926.9 13926.9 13841.7 13841.7 13756.6 13756.6 13671.5 13671.5 13586.4 13586.4 13501.3 13501.3 13416.3 13416.3 13331.4 13331.4 13246.5 13246.5 13161.7 13161.7 13077 13077 12992.4 12992.4 12907.9 12907.9 12823.4 12823.4 12739.1 12739.1 12654.9 12654.9 12570.9 12570.9 12486.9 12486.9 12403.1 12403.1 12319.5 12319.5 12236 12236 12152.6 12152.6 12069.5 12069.5 11986.5 11986.5 11903.6 11903.6 11821 11821 11738.5 11738.5 11656.2 11656.2 11574.1 11574.1 11492.3 11492.3 11410.6 11410.6 11329.1 11329.1 11247.9 11247.9 11166.9 11166.9 11086.1 11086.1 11005.5 11005.5 10925.2 10925.2 10845.1 10845.1 10765.2 10765.2 10685.6 10685.6 10606.3 10606.3 10527.2 10527.2 10448.3 10448.3 10369.7 10369.7 10291.4 10291.4 10213.4 10213.4 10135.6 10135.6 10058.1 10058.1 9980.86 9980.86 9903.92 9903.92 9827.27 9827.27 9750.9 9750.9 9674.82 9674.82 9599.03 9599.03 9523.54 9523.54 9448.35 9448.35 9373.46 9373.46 9298.87 9298.87 9224.58 9224.58 9150.61 9150.61 9076.94 9076.94 9003.59 9003.59 8930.55 8930.55 8857.83 8857.83 8785.42 8785.42 8713.33 8713.33 8641.57 8641.57 8570.12 8570.12 8499.01 8499.01 8428.22 8428.22 8357.75 8357.75 8287.62 8287.62 8217.82 8217.82 8148.35 8148.35 8079.21 8079.21 8010.4 8010.4 7941.94 7941.94 7873.8 7873.8 7806.01 7806.01 7738.55 7738.55 7671.44 7671.44 7604.66 7604.66 7538.23 7538.23 7472.13 7472.13 7406.38 7406.38 7340.98 7340.98 7275.91 7275.91 7211.19 7211.19 7146.82 7146.82 7082.79 7082.79 7019.11 7019.11 6955.77 6955.77 6892.78 6892.78 6830.13 6830.13 6767.84 6767.84 6705.88 6705.88 6644.28 6644.28 6583.03 6583.03 6522.12 6522.12 6461.56 6461.56 6401.34 6401.34 6341.48 6341.48 6281.96 6281.96 6222.78 6222.78 6163.96 6163.96 6105.48 6105.48 6047.35 6047.35 5989.56 5989.56 5932.12 5932.12 5875.03 5875.03 5818.28 5818.28 5761.88 5761.88 5705.82 5705.82 5650.1 5650.1 5594.73 5594.73 5539.7 5539.7 5485.02 5485.02 5430.67 5430.67 5376.67 5376.67 5323.01 5323.01 5269.68 5269.68 5216.7 5216.7 5164.06 5164.06 5111.75 5111.75 5059.78 5059.78 5008.15 5008.15 4956.85 4956.85 4905.89 4905.89 4855.26 4855.26 4804.97 4804.97 4755 4755 4705.37 4705.37 4656.07 4656.07 4607.1 4607.1 4558.46 4558.46 4510.14 4510.14 4462.15 4462.15 4414.49 4414.49 4367.15 4367.15 4320.13 4320.13 4273.44 4273.44 4227.06 4227.06 4181.01 4181.01 4135.28 4135.28 4089.86 4089.86 4044.77 4044.77 3999.98 3999.98 3955.51 3955.51 3911.36 3911.36 3867.52 3867.52 3823.98 3823.98 3780.76 3780.76 3737.85 3737.85 3695.24 3695.24 3652.94 3652.94 3610.94 3610.94 3569.25 3569.25 3527.86 3527.86 3486.77 3486.77 3445.98 3445.98 3405.48 3405.48 3365.29 3365.29 3325.39 3325.39 3285.78 3285.78 3246.47 3246.47 3207.44 3207.44 3168.71 3168.71 3130.27 3130.27 3092.11 3092.11 3054.24 3054.24 3016.66 3016.66 2979.35 2979.35 2942.33 2942.33 2905.59 2905.59 2869.13 2869.13 2832.95 2832.95 2797.04 2797.04 2761.4 2761.4 2726.04 2726.04 2690.96 2690.96 2656.14 2656.14 2621.59 2621.59 2587.31 2587.31 2553.29 2553.29 2519.54 2519.54 2486.05 2486.05 2452.82 2452.82 2419.86 2419.86 2387.15 2387.15 2354.7 2354.7 2322.5 2322.5 2290.56 2290.56 2258.88 2258.88 2227.44 2227.44 2196.25 2196.25 2165.31 2165.31 2134.62 2134.62 2104.18 2104.18 2073.98 2073.98 2044.02 2044.02 2014.3 2014.3 1984.82 1984.82 1955.58 1955.58 1926.58 1926.58 1897.81 1897.81 1869.27 1869.27 1840.97 1840.97 1812.9 1812.9 1785.06 1785.06 1757.44 1757.44 1730.05 1730.05 1702.89 1702.89 1675.95 1675.95 1649.23 1649.23 1622.73 1622.73 1596.46 1596.46 1570.4 1570.4 1544.55 1544.55 1518.92 1518.92 1493.51 1493.51 1468.3 1468.3 1443.31 1443.31 1418.52 1418.52 1393.95 1393.95 1369.58 1369.58 1345.41 1345.41 1321.45 1321.45 1297.69 1297.69 1274.13 1274.13 1250.77 1250.77 1227.6 1227.6 1204.64 1204.64 1181.86 1181.86 1159.28 1159.28 1136.9 1136.9 1114.7 1114.7 1092.7 1092.7 1070.88 1070.88 1049.25 1049.25 1027.8 1027.8 1006.54 1006.54 985.46 985.46 964.562 964.562 943.843 943.843 923.304 923.304 902.941 902.941 882.755 882.755 862.742 862.742 842.904 842.904 823.237 823.237 803.741 803.741 784.414 784.414 765.255 765.255 746.263 746.263 727.437 727.437 708.775 708.775 690.275 690.275 671.938 671.938 653.76 653.76 635.742 635.742 617.882 617.882 600.178 600.178 582.63 582.63 565.236 565.236 547.995 547.995 530.905 530.905 513.966 513.966 497.176 497.176 480.535 480.535 464.04 464.04 447.691 447.691 431.487 431.487 415.425 415.425 399.506 399.506 383.728 383.728 368.09 368.09 352.59 352.59 337.228 337.228 322.002 322.002 306.912 306.912 291.956 291.956 277.132 277.132 262.441 262.441 247.88 247.88 233.449 233.449 219.146 219.146 204.971 204.971 190.922 190.922 176.998 176.998 163.199 163.199 149.523 149.523 135.969 135.969 122.536 122.536 109.223 109.223 96.0285 96.0285 82.9522 82.9522 69.9928 69.9928 57.1492 57.1492 44.4205 44.4205 31.8055 31.8055 19.3034 19.3034 6.91314 6.91314 -5.36633 -5.36633 -17.536 -17.536 -29.5968 -29.5968 -41.5496 -41.5496 -53.3956 -53.3956 -65.1357 -65.1357 -76.7707 -76.7707 -88.3016 -88.3016 -99.7295 -99.7295 -111.055 -111.055 -122.28 -122.28 -133.404 -133.404 -144.428 -144.428 -155.355 -155.355 -166.183 -166.183 -176.915 -176.915 -187.551 -187.551 -198.092 -198.092 -208.539 -208.539 -218.893 -218.893 -229.155 -229.155 -239.325 -239.325 -249.405 -249.405 -259.395 -259.395 -269.295 -269.295 -279.108 -279.108 -288.834 -288.834 -298.473 -298.473 -308.027 -308.027 -317.496 -317.496 -326.881 -326.881 -336.183 -336.183 -345.402 -345.402 -354.54 -354.54 -363.597 -363.597 -372.574 -372.574 -381.472 -381.472 -390.291 -390.291 -399.033 -399.033 -407.697 -407.697 -416.285 -416.285 -424.798 -424.798 -433.237 -433.237 -441.601 -441.601 -449.892 -449.892 -458.11 -458.11 -466.256 -466.256 -474.332 -474.332 -482.336 -482.336 -490.272 -490.272 -498.138 -498.138 -505.935 -505.935 -513.665 -513.665 -521.328 -521.328 -528.925 -528.925 -536.456 -536.456 -543.922 -543.922 -551.324 -551.324 -558.662 -558.662 -565.937 -565.937 -573.149 -573.149 -580.3 -580.3 -587.389 -587.389 -594.418 -594.418 -601.387 -601.387 -608.297 -608.297 -615.148 -615.148 -621.941 -621.941 -628.676 -628.676 -635.355 -635.355 -641.977 -641.977 -648.544 -648.544 -655.055 -655.055 -661.512 -661.512 -667.914 -667.914 -674.264 -674.264 -680.56 -680.56 -686.804 -686.804 -692.996 -692.996 -699.137 -699.137 -705.227 -705.227 -711.267 -711.267 -717.258 -717.258 -723.199 -723.199 -729.091 -729.091 -734.936 -734.936 -740.733 -740.733 -746.483 -746.483 -752.186 -752.186 -757.843 -757.843 -763.455 -763.455 -769.021 -769.021 -774.543 -774.543 -780.021 -780.021 -785.455 -785.455 -790.846 -790.846 -796.194 -796.194 -801.5 -801.5 -806.764 -806.764 -811.987 -811.987 -817.169 -817.169 -822.31 -822.31 -827.411 -827.411 -832.473 -832.473 -837.496 -837.496 -842.48 -842.48 -847.425 -847.425 -852.333 -852.333 -857.203 -857.203 -862.037 -862.037 -866.833 -866.833 -871.594 -871.594 -876.318 -876.318 -881.007 -881.007 -885.661 -885.661 -890.281 -890.281 -894.866 -894.866 -899.417 -899.417 -903.935 -903.935 -908.42 -908.42 -912.872 -912.872 -917.291 -917.291 -921.679 -921.679 -926.034 -926.034 -930.359 -930.359 -934.652 -934.652 -938.915 -938.915 -943.148 -943.148 -947.35 -947.35 -951.523 -951.523 -955.667 -955.667 -959.782 -959.782 -963.868 -963.868 -967.926 -967.926 -971.956 -971.956 -975.959 -975.959 -979.934 -979.934 -983.882 -983.882 -987.803 -987.803 -991.698 -991.698 -995.567 -995.567 -999.41 -999.41 -1003.23 -1003.23 -1007.02 -1007.02 -1010.79 -1010.79 -1014.53 -1014.53 -1018.25 -1018.25 -1021.94 -1021.94 -1025.61 -1025.61 -1029.26 -1029.26 -1032.88 -1032.88 -1036.48 -1036.48 -1040.06 -1040.06 -1043.62 -1043.62 -1047.15 -1047.15 -1050.66 -1050.66 -1054.15 -1054.15 -1057.62 -1057.62 -1061.06 -1061.06 -1064.49 -1064.49 -1067.9 -1067.9 -1071.28 -1071.28 -1074.64 -1074.64 -1077.99 -1077.99 -1081.31 -1081.31 -1084.62 -1084.62 -1087.9 -1087.9 -1091.17 -1091.17 -1094.41 -1094.41 -1097.64 -1097.64 -1100.85 -1100.85 -1104.04 -1104.04 -1107.22 -1107.22 -1110.37 -1110.37 -1113.51 -1113.51 -1116.63 -1116.63 -1119.73 -1119.73 -1122.82 -1122.82 -1125.89 -1125.89 -1128.94 -1128.94 -1131.98 -1131.98 -1135 -1135 -1138 -1138 -1140.99 -1140.99 -1143.96 -1143.96 -1146.91 -1146.91 -1149.85 -1149.85 -1152.78 -1152.78 -1155.69 -1155.69 -1158.58 -1158.58 -1161.46 -1161.46 -1164.32 -1164.32 -1167.17 -1167.17 -1170.01 -1170.01 -1172.83 -1172.83 -1175.64 -1175.64 -1178.43 -1178.43 -1181.21 -1181.21 -1183.98 -1183.98 -1186.73 -1186.73 -1189.47 -1189.47 -1192.2 -1192.2 -1194.91 -1194.91 -1197.61 -1197.61 -1200.29 -1200.29 -1202.97 -1202.97 -1205.63 -1205.63 -1208.28 -1208.28 -1210.92 -1210.92 -1213.54 -1213.54 -1216.15 -1216.15 -1218.75 -1218.75 -1221.34 -1221.34 -1223.91 -1223.91 -1226.48 -1226.48 -1229.03 -1229.03 -1231.57 -1231.57 -1234.1 -1234.1 -1236.62 -1236.62 -1239.13 -1239.13 -1241.62 -1241.62 -1244.11 -1244.11 -1246.58 -1246.58 -1249.04 -1249.04 -1251.49 -1251.49 -1253.94 -1253.94 -1256.37 -1256.37 -1258.79 -1258.79 -1261.19 -1261.19 -1263.59 -1263.59 -1265.98 -1265.98 -1268.36 -1268.36 -1270.73 -1270.73 -1273.08 -1273.08 -1275.43 -1275.43 -1277.77 -1277.77 -1280.1 -1280.1 -1282.41 -1282.41 -1284.72 -1284.72 -1287.02 -1287.02 -1289.3 -1289.3 -1291.58 -1291.58 -1293.85 -1293.85 -1296.11 -1296.11 -1298.35 -1298.35 -1300.59 -1300.59 -1302.82 -1302.82 -1305.04 -1305.04 -1307.25 -1307.25 -1309.45 -1309.45 -1311.64 -1311.64 -1313.82 -1313.82 -1316 -1316 -1318.16 -1318.16 -1320.31 -1320.31 -1322.45 -1322.45 -1324.59 -1324.59 -1326.71 -1326.71 -1328.83 -1328.83 -1330.93 -1330.93 -1333.03 -1333.03 -1335.12 -1335.12 -1337.2 -1337.2 -1339.26 -1339.26 -1341.32 -1341.32 -1343.37 -1343.37 -1345.41 -1345.41 -1347.44 -1347.44 -1349.47 -1349.47 -1351.48 -1351.48 -1353.48 -1353.48 -1355.47 -1355.47 -1357.46 -1357.46 -1359.43 -1359.43 -1361.4 -1361.4 -1363.35 -1363.35 -1365.3 -1365.3 -1367.23 -1367.23 -1369.16 -1369.16 -1371.08 -1371.08 -1372.98 -1372.98 -1374.88 -1374.88 -1376.77 -1376.77 -1378.64 -1378.64 -1380.51 -1380.51 -1382.37 -1382.37 -1384.22 -1384.22 -1386.06 -1386.06 -1387.88 -1387.88 -1389.7 -1389.7 -1391.51 -1391.51 -1393.3 -1393.3 -1395.09 -1395.09 -1396.87 -1396.87 -1398.63 -1398.63 -1400.39 -1400.39 -1402.13 -1402.13 -1403.87 -1403.87 -1405.59 -1405.59 -1407.3 -1407.3 -1409 -1409 -1410.69 -1410.69 -1412.37 -1412.37 -1414.04 -1414.04 -1415.7 -1415.7 -1417.34 -1417.34 -1418.98 -1418.98 -1420.6 -1420.6 -1422.21 -1422.21 -1423.81 -1423.81 -1425.4 -1425.4 -1426.97 -1426.97 -1428.53 -1428.53 -1430.09 -1430.09 -1431.62 -1431.62 -1433.15 -1433.15 -1434.66 -1434.66 -1436.17 -1436.17 -1437.65 -1437.65 -1439.13 -1439.13 -1440.59 -1440.59 -1442.04 -1442.04 -1443.48 -1443.48 -1444.9 -1444.9 -1446.31 -1446.31 -1447.71 -1447.71 -1449.09 -1449.09 -1450.46 -1450.46 -1451.81 -1451.81 -1453.15 -1453.15 -1454.48 -1454.48 -1455.79 -1455.79 -1457.08 -1457.08 -1458.37 -1458.37 -1459.63 -1459.63 -1460.88 -1460.88 -1462.12 -1462.12 -1463.34 -1463.34 -1464.54 -1464.54 -1465.73 -1465.73 -1466.91 -1466.91 -1468.06 -1468.06 -1469.2 -1469.2 -1470.33 -1470.33 -1471.44 -1471.44 -1472.53 -1472.53 -1473.6 -1473.6 -1474.66 -1474.66 -1475.7 -1475.7 -1476.72 -1476.72 -1477.72 -1477.72 -1478.71 -1478.71 -1479.67 -1479.67 -1480.62 -1480.62 -1481.55 -1481.55 -1482.46 -1482.46 -1483.36 -1483.36 -1484.23 -1484.23 -1485.08 -1485.08 -1485.92 -1485.92 -1486.73 -1486.73 -1487.53 -1487.53 -1488.3 -1488.3 -1489.05 -1489.05 -1489.78 -1489.78 -1490.5 -1490.5 -1491.19 -1491.19 -1491.85 -1491.85 -1492.5 -1492.5 -1493.12 -1493.12 -1493.73 -1493.73 -1494.31 -1494.31 -1494.86 -1494.86 -1495.4 -1495.4 -1495.91 -1495.91 -1496.4 -1496.4 -1496.86 -1496.86 -1497.3 -1497.3 -1497.71 -1497.71 -1498.1 -1498.1 -1498.47 -1498.47 -1498.81 -1498.81 -1499.13 -1499.13 -1499.42 -1499.42 -1499.68 -1499.68 -1499.92 -1499.92 -1500.13 -1500.13 -1500.31 -1500.31 -1500.47 -1500.47 -1500.59 -1500.59 -1500.7 -1500.7 -1500.77 -1500.77 -1500.81 -1500.81 -1500.83 -1500.83 -1500.82 -1500.82 -1500.77 -1500.77 -1500.7 -1500.7 -1500.6 -1500.6 -1500.47 -1500.47 -1500.31 -1500.31 -1500.11 -1500.11 -1499.89 -1499.89 -1499.63 -1499.63 -1499.34 -1499.34 -1499.02 -1499.02 -1498.67 -1498.67 -1498.28 -1498.28 -1497.86 -1497.86 -1497.41 -1497.41 -1496.92 -1496.92 -1496.4 -1496.4 -1495.84 -1495.84 -1495.25 -1495.25 -1494.62 -1494.62 -1493.96 -1493.96 -1493.26 -1493.26 -1492.52 -1492.52 -1491.75 -1491.75 -1490.94 -1490.94 -1490.09 -1490.09 -1489.2 -1489.2 -1488.28 -1488.28 -1487.32 -1487.32 -1486.31 -1486.31 -1485.27 -1485.27 -1484.19 -1484.19 -1483.07 -1483.07 -1481.9 -1481.9 -1480.7 -1480.7 -1479.45 -1479.45 -1478.16 -1478.16 -1476.83 -1476.83 -1475.46 -1475.46 -1474.05 -1474.05 -1472.59 -1472.59 -1471.08 -1471.08 -1469.53 -1469.53 -1467.94 -1467.94 -1466.31 -1466.31 -1464.62 -1464.62 -1462.89 -1462.89 -1461.12 -1461.12 -1459.3 -1459.3 -1457.43 -1457.43 -1455.51 -1455.51 -1453.55 -1453.55 -1451.53 -1451.53 -1449.47 -1449.47 -1447.36 -1447.36 -1445.2 -1445.2 -1442.99 -1442.99 -1440.73 -1440.73 -1438.42 -1438.42 -1436.06 -1436.06 -1433.64 -1433.64 -1431.18 -1431.18 -1428.66 -1428.66 -1426.09 -1426.09 -1423.46 -1423.46 -1420.78 -1420.78 -1418.05 -1418.05 -1415.26 -1415.26 -1412.42 -1412.42 -1409.52 -1409.52 -1406.57 -1406.57 -1403.56 -1403.56 -1400.49 -1400.49 -1397.37 -1397.37 -1394.19 -1394.19 -1390.95 -1390.95 -1387.65 -1387.65 -1384.29 -1384.29 -1380.88 -1380.88 -1377.4 -1377.4 -1373.87 -1373.87 -1370.27 -1370.27 -1366.61 -1366.61 -1362.89 -1362.89 -1359.11 -1359.11 -1355.26 -1355.26 -1351.36 -1351.36 -1347.38 -1347.38 -1343.35 -1343.35 -1339.25 -1339.25 -1335.09 -1335.09 -1330.86 -1330.86 -1326.56 -1326.56 -1322.2 -1322.2 -1317.77 -1317.77 -1313.28 -1313.28 -1308.72 -1308.72 -1304.08 -1304.08 -1299.39 -1299.39 -1294.62 -1294.62 -1289.78 -1289.78 -1284.87 -1284.87 -1279.89 -1279.89 -1274.84 -1274.84 -1269.72 -1269.72 -1264.53 -1264.53 -1259.27 -1259.27 -1253.93 -1253.93 -1248.52 -1248.52 -1243.03 -1243.03 -1237.47 -1237.47 -1231.84 -1231.84 -1226.13 -1226.13 -1220.35 -1220.35 -1214.48 -1214.48 -1208.55 -1208.55 -1202.53 -1202.53 -1196.44 -1196.44 -1190.27 -1190.27 -1184.02 -1184.02 -1177.69 -1177.69 -1171.28 -1171.28 -1164.8 -1164.8 -1158.23 -1158.23 -1151.58 -1151.58 -1144.85 -1144.85 -1138.04 -1138.04 -1131.15 -1131.15 -1124.17 -1124.17 -1117.11 -1117.11 -1109.97 -1109.97 -1102.74 -1102.74 -1095.43 -1095.43 -1088.03 -1088.03 -1080.55 -1080.55 -1072.98 -1072.98 -1065.33 -1065.33 -1057.59 -1057.59 -1049.76 -1049.76 -1041.84 -1041.84 -1033.84 -1033.84 -1025.75 -1025.75 -1017.57 -1017.57 -1009.3 -1009.3 -1000.95 -1000.95 -992.499 -992.499 -983.961 -983.961 -975.333 -975.333 -966.614 -966.614 -957.803 -957.803 -948.902 -948.902 -939.908 -939.908 -930.822 -930.822 -921.643 -921.643 -912.371 -912.371 -903.006 -903.006 -893.548 -893.548 -883.995 -883.995 -874.348 -874.348 -864.607 -864.607 -854.771 -854.771 -844.84 -844.84 -834.813 -834.813 -824.691 -824.691 -814.473 -814.473 -804.158 -804.158 -793.748 -793.748 -783.24 -783.24 -772.636 -772.636 -761.935 -761.935 -751.136 -751.136 -740.24 -740.24 -729.246 -729.246 -718.154 
SCALARS solution_1 double 1
LOOKUP_TABLE default