# vtk DataFile Version 3.0
#This file was generated by the deal.II library on 2020/9/6 at 3:41:42
ASCII
DATASET UNSTRUCTURED_GRID

POINTS 4096 double
1.5 0 0
1.5481 0 0
1.5481 0 0
1.59619 0 0
1.59619 0 0
1.64429 0 0
1.64429 0 0
1.69238 0 0
1.69238 0 0
1.74048 0 0
1.74048 0 0
1.78857 0 0
1.78857 0 0
1.83667 0 0
1.83667 0 0
1.88477 0 0
1.88477 0 0
1.93286 0 0
1.93286 0 0
1.98096 0 0
1.98096 0 0
2.02905 0 0
2.02905 0 0
2.07715 0 0
2.07715 0 0
2.12524 0 0
2.12524 0 0
2.17334 0 0
2.17334 0 0
2.22144 0 0
2.22144 0 0
2.26953 0 0
2.26953 0 0
2.31763 0 0
2.31763 0 0
2.36572 0 0
2.36572 0 0
2.41382 0 0
2.41382 0 0
2.46191 0 0
2.46191 0 0
2.51001 0 0
2.51001 0 0
2.55811 0 0
2.55811 0 0
2.6062 0 0
2.6062 0 0
2.6543 0 0
2.6543 0 0
2.70239 0 0
2.70239 0 0
2.75049 0 0
2.75049 0 0
2.79858 0 0
2.79858 0 0
2.84668 0 0
2.84668 0 0
2.89478 0 0
2.89478 0 0
2.94287 0 0
2.94287 0 0
2.99097 0 0
2.99097 0 0
3.03906 0 0
3.03906 0 0
3.08716 0 0
3.08716 0 0
3.13525 0 0
3.13525 0 0
3.18335 0 0
3.18335 0 0
3.23145 0 0
3.23145 0 0
3.27954 0 0
3.27954 0 0
3.32764 0 0
3.32764 0 0
3.37573 0 0
3.37573 0 0
3.42383 0 0
3.42383 0 0
3.47192 0 0
3.47192 0 0
3.52002 0 0
3.52002 0 0
3.56812 0 0
3.56812 0 0
3.61621 0 0
3.61621 0 0
3.66431 0 0
3.66431 0 0
3.7124 0 0
3.7124 0 0
3.7605 0 0
3.7605 0 0
3.80859 0 0
3.80859 0 0
3.85669 0 0
3.85669 0 0
3.90479 0 0
3.90479 0 0
3.95288 0 0
3.95288 0 0
4.00098 0 0
4.00098 0 0
4.04907 0 0
4.04907 0 0
4.09717 0 0
4.09717 0 0
4.14526 0 0
4.14526 0 0
4.19336 0 0
4.19336 0 0
4.24146 0 0
4.24146 0 0
4.28955 0 0
4.28955 0 0
4.33765 0 0
4.33765 0 0
4.38574 0 0
4.38574 0 0
4.43384 0 0
4.43384 0 0
4.48193 0 0
4.48193 0 0
4.53003 0 0
4.53003 0 0
4.57812 0 0
4.57812 0 0
4.62622 0 0
4.62622 0 0
4.67432 0 0
4.67432 0 0
4.72241 0 0
4.72241 0 0
4.77051 0 0
4.77051 0 0
4.8186 0 0
4.8186 0 0
4.8667 0 0
4.8667 0 0
4.91479 0 0
4.91479 0 0
4.96289 0 0
4.96289 0 0
5.01099 0 0
5.01099 0 0
5.05908 0 0
5.05908 0 0
5.10718 0 0
5.10718 0 0
5.15527 0 0
5.15527 0 0
5.20337 0 0
5.20337 0 0
5.25146 0 0
5.25146 0 0
5.29956 0 0
5.29956 0 0
5.34766 0 0
5.34766 0 0
5.39575 0 0
5.39575 0 0
5.44385 0 0
5.44385 0 0
5.49194 0 0
5.49194 0 0
5.54004 0 0
5.54004 0 0
5.58813 0 0
5.58813 0 0
5.63623 0 0
5.63623 0 0
5.68433 0 0
5.68433 0 0
5.73242 0 0
5.73242 0 0
5.78052 0 0
5.78052 0 0
5.82861 0 0
5.82861 0 0
5.87671 0 0
5.87671 0 0
5.9248 0 0
5.9248 0 0
5.9729 0 0
5.9729 0 0
6.021 0 0
6.021 0 0
6.06909 0 0
6.06909 0 0
6.11719 0 0
6.11719 0 0
6.16528 0 0
6.16528 0 0
6.21338 0 0
6.21338 0 0
6.26147 0 0
6.26147 0 0
6.30957 0 0
6.30957 0 0
6.35767 0 0
6.35767 0 0
6.40576 0 0
6.40576 0 0
6.45386 0 0
6.45386 0 0
6.50195 0 0
6.50195 0 0
6.55005 0 0
6.55005 0 0
6.59814 0 0
6.59814 0 0
6.64624 0 0
6.64624 0 0
6.69434 0 0
6.69434 0 0
6.74243 0 0
6.74243 0 0
6.79053 0 0
6.79053 0 0
6.83862 0 0
6.83862 0 0
6.88672 0 0
6.88672 0 0
6.93481 0 0
6.93481 0 0
6.98291 0 0
6.98291 0 0
7.03101 0 0
7.03101 0 0
7.0791 0 0
7.0791 0 0
7.1272 0 0
7.1272 0 0
7.17529 0 0
7.17529 0 0
7.22339 0 0
7.22339 0 0
7.27148 0 0
7.27148 0 0
7.31958 0 0
7.31958 0 0
7.36768 0 0
7.36768 0 0
7.41577 0 0
7.41577 0 0
7.46387 0 0
7.46387 0 0
7.51196 0 0
7.51196 0 0
7.56006 0 0
7.56006 0 0
7.60815 0 0
7.60815 0 0
7.65625 0 0
7.65625 0 0
7.70435 0 0
7.70435 0 0
7.75244 0 0
7.75244 0 0
7.80054 0 0
7.80054 0 0
7.84863 0 0
7.84863 0 0
7.89673 0 0
7.89673 0 0
7.94482 0 0
7.94482 0 0
7.99292 0 0
7.99292 0 0
8.04102 0 0
8.04102 0 0
8.08911 0 0
8.08911 0 0
8.13721 0 0
8.13721 0 0
8.1853 0 0
8.1853 0 0
8.2334 0 0
8.2334 0 0
8.28149 0 0
8.28149 0 0
8.32959 0 0
8.32959 0 0
8.37769 0 0
8.37769 0 0
8.42578 0 0
8.42578 0 0
8.47388 0 0
8.47388 0 0
8.52197 0 0
8.52197 0 0
8.57007 0 0
8.57007 0 0
8.61816 0 0
8.61816 0 0
8.66626 0 0
8.66626 0 0
8.71436 0 0
8.71436 0 0
8.76245 0 0
8.76245 0 0
8.81055 0 0
8.81055 0 0
8.85864 0 0
8.85864 0 0
8.90674 0 0
8.90674 0 0
8.95483 0 0
8.95483 0 0
9.00293 0 0
9.00293 0 0
9.05103 0 0
9.05103 0 0
9.09912 0 0
9.09912 0 0
9.14722 0 0
9.14722 0 0
9.19531 0 0
9.19531 0 0
9.24341 0 0
9.24341 0 0
9.2915 0 0
9.2915 0 0
9.3396 0 0
9.3396 0 0
9.3877 0 0
9.3877 0 0
9.43579 0 0
9.43579 0 0
9.48389 0 0
9.48389 0 0
9.53198 0 0
9.53198 0 0
9.58008 0 0
9.58008 0 0
9.62817 0 0
9.62817 0 0
9.67627 0 0
9.67627 0 0
9.72437 0 0
9.72437 0 0
9.77246 0 0
9.77246 0 0
9.82056 0 0
9.82056 0 0
9.86865 0 0
9.86865 0 0
9.91675 0 0
9.91675 0 0
9.96484 0 0
9.96484 0 0
10.0129 0 0
10.0129 0 0
10.061 0 0
10.061 0 0
10.1091 0 0
10.1091 0 0
10.1572 0 0
10.1572 0 0
10.2053 0 0
10.2053 0 0
10.2534 0 0
10.2534 0 0
10.3015 0 0
10.3015 0 0
10.3496 0 0
10.3496 0 0
10.3977 0 0
10.3977 0 0
10.4458 0 0
10.4458 0 0
10.4939 0 0
10.4939 0 0
10.542 0 0
10.542 0 0
10.5901 0 0
10.5901 0 0
10.6382 0 0
10.6382 0 0
10.6863 0 0
10.6863 0 0
10.7344 0 0
10.7344 0 0
10.7825 0 0
10.7825 0 0
10.8306 0 0
10.8306 0 0
10.8787 0 0
10.8787 0 0
10.9268 0 0
10.9268 0 0
10.9749 0 0
10.9749 0 0
11.0229 0 0
11.0229 0 0
11.071 0 0
11.071 0 0
11.1191 0 0
11.1191 0 0
11.1672 0 0
11.1672 0 0
11.2153 0 0
11.2153 0 0
11.2634 0 0
11.2634 0 0
11.3115 0 0
11.3115 0 0
11.3596 0 0
11.3596 0 0
11.4077 0 0
11.4077 0 0
11.4558 0 0
11.4558 0 0
11.5039 0 0
11.5039 0 0
11.552 0 0
11.552 0 0
11.6001 0 0
11.6001 0 0
11.6482 0 0
11.6482 0 0
11.6963 0 0
11.6963 0 0
11.7444 0 0
11.7444 0 0
11.7925 0 0
11.7925 0 0
11.8406 0 0
11.8406 0 0
11.8887 0 0
11.8887 0 0
11.9368 0 0
11.9368 0 0
11.9849 0 0
11.9849 0 0
12.033 0 0
12.033 0 0
12.0811 0 0
12.0811 0 0
12.1292 0 0
12.1292 0 0
12.1772 0 0
12.1772 0 0
12.2253 0 0
12.2253 0 0
12.2734 0 0
12.2734 0 0
12.3215 0 0
12.3215 0 0
12.3696 0 0
12.3696 0 0
12.4177 0 0
12.4177 0 0
12.4658 0 0
12.4658 0 0
12.5139 0 0
12.5139 0 0
12.562 0 0
12.562 0 0
12.6101 0 0
12.6101 0 0
12.6582 0 0
12.6582 0 0
12.7063 0 0
12.7063 0 0
12.7544 0 0
12.7544 0 0
12.8025 0 0
12.8025 0 0
12.8506 0 0
12.8506 0 0
12.8987 0 0
12.8987 0 0
12.9468 0 0
12.9468 0 0
12.9949 0 0
12.9949 0 0
13.043 0 0
13.043 0 0
13.0911 0 0
13.0911 0 0
13.1392 0 0
13.1392 0 0
13.1873 0 0
13.1873 0 0
13.2354 0 0
13.2354 0 0
13.2834 0 0
13.2834 0 0
13.3315 0 0
13.3315 0 0
13.3796 0 0
13.3796 0 0
13.4277 0 0
13.4277 0 0
13.4758 0 0
13.4758 0 0
13.5239 0 0
13.5239 0 0
13.572 0 0
13.572 0 0
13.6201 0 0
13.6201 0 0
13.6682 0 0
13.6682 0 0
13.7163 0 0
13.7163 0 0
13.7644 0 0
13.7644 0 0
13.8125 0 0
13.8125 0 0
13.8606 0 0
13.8606 0 0
13.9087 0 0
13.9087 0 0
13.9568 0 0
13.9568 0 0
14.0049 0 0
14.0049 0 0
14.053 0 0
14.053 0 0
14.1011 0 0
14.1011 0 0
14.1492 0 0
14.1492 0 0
14.1973 0 0
14.1973 0 0
14.2454 0 0
14.2454 0 0
14.2935 0 0
14.2935 0 0
14.3416 0 0
14.3416 0 0
14.3896 0 0
14.3896 0 0
14.4377 0 0
14.4377 0 0
14.4858 0 0
14.4858 0 0
14.5339 0 0
14.5339 0 0
14.582 0 0
14.582 0 0
14.6301 0 0
14.6301 0 0
14.6782 0 0
14.6782 0 0
14.7263 0 0
14.7263 0 0
14.7744 0 0
14.7744 0 0
14.8225 0 0
14.8225 0 0
14.8706 0 0
14.8706 0 0
14.9187 0 0
14.9187 0 0
14.9668 0 0
14.9668 0 0
15.0149 0 0
15.0149 0 0
15.063 0 0
15.063 0 0
15.1111 0 0
15.1111 0 0
15.1592 0 0
15.1592 0 0
15.2073 0 0
15.2073 0 0
15.2554 0 0
15.2554 0 0
15.3035 0 0
15.3035 0 0
15.3516 0 0
15.3516 0 0
15.3997 0 0
15.3997 0 0
15.4478 0 0
15.4478 0 0
15.4958 0 0
15.4958 0 0
15.5439 0 0
15.5439 0 0
15.592 0 0
15.592 0 0
15.6401 0 0
15.6401 0 0
15.6882 0 0
15.6882 0 0
15.7363 0 0
15.7363 0 0
15.7844 0 0
15.7844 0 0
15.8325 0 0
15.8325 0 0
15.8806 0 0
15.8806 0 0
15.9287 0 0
15.9287 0 0
15.9768 0 0
15.9768 0 0
16.0249 0 0
16.0249 0 0
16.073 0 0
16.073 0 0
16.1211 0 0
16.1211 0 0
16.1692 0 0
16.1692 0 0
16.2173 0 0
16.2173 0 0
16.2654 0 0
16.2654 0 0
16.3135 0 0
16.3135 0 0
16.3616 0 0
16.3616 0 0
16.4097 0 0
16.4097 0 0
16.4578 0 0
16.4578 0 0
16.5059 0 0
16.5059 0 0
16.554 0 0
16.554 0 0
16.6021 0 0
16.6021 0 0
16.6501 0 0
16.6501 0 0
16.6982 0 0
16.6982 0 0
16.7463 0 0
16.7463 0 0
16.7944 0 0
16.7944 0 0
16.8425 0 0
16.8425 0 0
16.8906 0 0
16.8906 0 0
16.9387 0 0
16.9387 0 0
16.9868 0 0
16.9868 0 0
17.0349 0 0
17.0349 0 0
17.083 0 0
17.083 0 0
17.1311 0 0
17.1311 0 0
17.1792 0 0
17.1792 0 0
17.2273 0 0
17.2273 0 0
17.2754 0 0
17.2754 0 0
17.3235 0 0
17.3235 0 0
17.3716 0 0
17.3716 0 0
17.4197 0 0
17.4197 0 0
17.4678 0 0
17.4678 0 0
17.5159 0 0
17.5159 0 0
17.564 0 0
17.564 0 0
17.6121 0 0
17.6121 0 0
17.6602 0 0
17.6602 0 0
17.7083 0 0
17.7083 0 0
17.7563 0 0
17.7563 0 0
17.8044 0 0
17.8044 0 0
17.8525 0 0
17.8525 0 0
17.9006 0 0
17.9006 0 0
17.9487 0 0
17.9487 0 0
17.9968 0 0
17.9968 0 0
18.0449 0 0
18.0449 0 0
18.093 0 0
18.093 0 0
18.1411 0 0
18.1411 0 0
18.1892 0 0
18.1892 0 0
18.2373 0 0
18.2373 0 0
18.2854 0 0
18.2854 0 0
18.3335 0 0
18.3335 0 0
18.3816 0 0
18.3816 0 0
18.4297 0 0
18.4297 0 0
18.4778 0 0
18.4778 0 0
18.5259 0 0
18.5259 0 0
18.574 0 0
18.574 0 0
18.6221 0 0
18.6221 0 0
18.6702 0 0
18.6702 0 0
18.7183 0 0
18.7183 0 0
18.7664 0 0
18.7664 0 0
18.8145 0 0
18.8145 0 0
18.8625 0 0
18.8625 0 0
18.9106 0 0
18.9106 0 0
18.9587 0 0
18.9587 0 0
19.0068 0 0
19.0068 0 0
19.0549 0 0
19.0549 0 0
19.103 0 0
19.103 0 0
19.1511 0 0
19.1511 0 0
19.1992 0 0
19.1992 0 0
19.2473 0 0
19.2473 0 0
19.2954 0 0
19.2954 0 0
19.3435 0 0
19.3435 0 0
19.3916 0 0
19.3916 0 0
19.4397 0 0
19.4397 0 0
19.4878 0 0
19.4878 0 0
19.5359 0 0
19.5359 0 0
19.584 0 0
19.584 0 0
19.6321 0 0
19.6321 0 0
19.6802 0 0
19.6802 0 0
19.7283 0 0
19.7283 0 0
19.7764 0 0
19.7764 0 0
19.8245 0 0
19.8245 0 0
19.8726 0 0
19.8726 0 0
19.9207 0 0
19.9207 0 0
19.9688 0 0
19.9688 0 0
20.0168 0 0
20.0168 0 0
20.0649 0 0
20.0649 0 0
20.113 0 0
20.113 0 0
20.1611 0 0
20.1611 0 0
20.2092 0 0
20.2092 0 0
20.2573 0 0
20.2573 0 0
20.3054 0 0
20.3054 0 0
20.3535 0 0
20.3535 0 0
20.4016 0 0
20.4016 0 0
20.4497 0 0
20.4497 0 0
20.4978 0 0
20.4978 0 0
20.5459 0 0
20.5459 0 0
20.594 0 0
20.594 0 0
20.6421 0 0
20.6421 0 0
20.6902 0 0
20.6902 0 0
20.7383 0 0
20.7383 0 0
20.7864 0 0
20.7864 0 0
20.8345 0 0
20.8345 0 0
20.8826 0 0
20.8826 0 0
20.9307 0 0
20.9307 0 0
20.9788 0 0
20.9788 0 0
21.0269 0 0
21.0269 0 0
21.075 0 0
21.075 0 0
21.123 0 0
21.123 0 0
21.1711 0 0
21.1711 0 0
21.2192 0 0
21.2192 0 0
21.2673 0 0
21.2673 0 0
21.3154 0 0
21.3154 0 0
21.3635 0 0
21.3635 0 0
21.4116 0 0
[...]
POINT_DATA 4096
SCALARS solution_0 double 1
LOOKUP_TABLE default
1.36847e+07 1.34202e+07 1.34202e+07 1.31748e+07 1.31748e+07 1.29467e+07 1.29467e+07 1.27339e+07 1.27339e+07 1.25351e+07 1.25351e+07 1.23488e+07 1.23488e+07 1.21739e+07 1.21739e+07 1.20092e+07 1.20092e+07 1.18539e+07 1.18539e+07 1.1707e+07 1.1707e+07 1.15679e+07 1.15679e+07 1.14359e+07 1.14359e+07 1.13104e+07 1.13104e+07 1.11908e+07 1.11908e+07 1.10766e+07 1.10766e+07 1.09675e+07 1.09675e+07 1.08629e+07 1.08629e+07 1.07627e+07 1.07627e+07 1.06664e+07 1.06664e+07 1.05737e+07 1.05737e+07 1.04843e+07 1.04843e+07 1.03982e+07 1.03982e+07 1.03149e+07 1.03149e+07 1.02343e+07 1.02343e+07 1.01562e+07 1.01562e+07 1.00805e+07 1.00805e+07 1.00069e+07 1.00069e+07 9.9354e+06 9.9354e+06 9.86579e+06 9.86579e+06 9.79797e+06 9.79797e+06 9.73182e+06 9.73182e+06 9.66724e+06 9.66724e+06 9.60413e+06 9.60413e+06 9.5424e+06 9.5424e+06 9.48198e+06 9.48198e+06 9.42278e+06 9.42278e+06 9.36474e+06 9.36474e+06 9.30779e+06 9.30779e+06 9.25187e+06 9.25187e+06 9.19692e+06 9.19692e+06 9.14289e+06 9.14289e+06 9.08973e+06 9.08973e+06 9.0374e+06 9.0374e+06 8.98585e+06 8.98585e+06 8.93505e+06 8.93505e+06 8.88496e+06 8.88496e+06 8.83554e+06 8.83554e+06 8.78676e+06 8.78676e+06 8.73859e+06 8.73859e+06 8.69101e+06 8.69101e+06 8.64398e+06 8.64398e+06 8.59749e+06 8.59749e+06 8.5515e+06 8.5515e+06 8.50601e+06 8.50601e+06 8.46098e+06 8.46098e+06 8.41641e+06 8.41641e+06 8.37226e+06 8.37226e+06 8.32853e+06 8.32853e+06 8.2852e+06 8.2852e+06 8.24226e+06 8.24226e+06 8.19968e+06 8.19968e+06 8.15747e+06 8.15747e+06 8.1156e+06 8.1156e+06 8.07406e+06 8.07406e+06 8.03285e+06 8.03285e+06 7.99195e+06 7.99195e+06 7.95136e+06 7.95136e+06 7.91106e+06 7.91106e+06 7.87105e+06 7.87105e+06 7.83132e+06 7.83132e+06 7.79186e+06 7.79186e+06 7.75266e+06 7.75266e+06 7.71372e+06 7.71372e+06 7.67503e+06 7.67503e+06 7.63658e+06 7.63658e+06 7.59838e+06 7.59838e+06 7.56041e+06 7.56041e+06 7.52266e+06 7.52266e+06 7.48515e+06 7.48515e+06 7.44785e+06 7.44785e+06 7.41077e+06 7.41077e+06 7.3739e+06 7.3739e+06 7.33723e+06 7.33723e+06 7.30078e+06 7.30078e+06 7.26452e+06 7.26452e+06 7.22846e+06 7.22846e+06 7.19259e+06 7.19259e+06 7.15692e+06 7.15692e+06 7.12143e+06 7.12143e+06 7.08613e+06 7.08613e+06 7.05102e+06 7.05102e+06 7.01608e+06 7.01608e+06 6.98133e+06 6.98133e+06 6.94675e+06 6.94675e+06 6.91234e+06 6.91234e+06 6.87811e+06 6.87811e+06 6.84405e+06 6.84405e+06 6.81016e+06 6.81016e+06 6.77644e+06 6.77644e+06 6.74288e+06 6.74288e+06 6.70949e+06 6.70949e+06 6.67626e+06 6.67626e+06 6.6432e+06 6.6432e+06 6.61029e+06 6.61029e+06 6.57754e+06 6.57754e+06 6.54495e+06 6.54495e+06 6.51252e+06 6.51252e+06 6.48024e+06 6.48024e+06 6.44812e+06 6.44812e+06 6.41615e+06 6.41615e+06 6.38433e+06 6.38433e+06 6.35267e+06 6.35267e+06 6.32115e+06 6.32115e+06 6.28979e+06 6.28979e+06 6.25857e+06 6.25857e+06 6.2275e+06 6.2275e+06 6.19658e+06 6.19658e+06 6.16581e+06 6.16581e+06 6.13518e+06 6.13518e+06 6.10469e+06 6.10469e+06 6.07435e+06 6.07435e+06 6.04416e+06 6.04416e+06 6.0141e+06 6.0141e+06 5.98419e+06 5.98419e+06 5.95442e+06 5.95442e+06 5.92479e+06 5.92479e+06 5.8953e+06 5.8953e+06 5.86595e+06 5.86595e+06 5.83674e+06 5.83674e+06 5.80767e+06 5.80767e+06 5.77874e+06 5.77874e+06 5.74994e+06 5.74994e+06 5.72128e+06 5.72128e+06 5.69276e+06 5.69276e+06 5.66437e+06 5.66437e+06 5.63611e+06 5.63611e+06 5.608e+06 5.608e+06 5.58001e+06 5.58001e+06 5.55216e+06 5.55216e+06 5.52444e+06 5.52444e+06 5.49686e+06 5.49686e+06 5.46941e+06 5.46941e+06 5.44208e+06 5.44208e+06 5.4149e+06 5.4149e+06 5.38784e+06 5.38784e+06 5.36091e+06 5.36091e+06 5.33411e+06 5.33411e+06 5.30744e+06 5.30744e+06 5.2809e+06 5.2809e+06 5.25448e+06 5.25448e+06 5.2282e+06 5.2282e+06 5.20204e+06 5.20204e+06 5.17601e+06 5.17601e+06 5.15011e+06 5.15011e+06 5.12433e+06 5.12433e+06 5.09868e+06 5.09868e+06 5.07315e+06 5.07315e+06 5.04775e+06 5.04775e+06 5.02247e+06 5.02247e+06 4.99731e+06 4.99731e+06 4.97228e+06 4.97228e+06 4.94737e+06 4.94737e+06 4.92259e+06 4.92259e+06 4.89792e+06 4.89792e+06 4.87338e+06 4.87338e+06 4.84896e+06 4.84896e+06 4.82466e+06 4.82466e+06 4.80048e+06 4.80048e+06 4.77641e+06 4.77641e+06 4.75247e+06 4.75247e+06 4.72865e+06 4.72865e+06 4.70494e+06 4.70494e+06 4.68136e+06 4.68136e+06 4.65789e+06 4.65789e+06 4.63453e+06 4.63453e+06 4.6113e+06 4.6113e+06 4.58818e+06 4.58818e+06 4.56517e+06 4.56517e+06 4.54228e+06 4.54228e+06 4.51951e+06 4.51951e+06 4.49685e+06 4.49685e+06 4.4743e+06 4.4743e+06 4.45187e+06 4.45187e+06 4.42954e+06 4.42954e+06 4.40734e+06 4.40734e+06 4.38524e+06 4.38524e+06 4.36325e+06 4.36325e+06 4.34138e+06 4.34138e+06 4.31962e+06 4.31962e+06 4.29796e+06 4.29796e+06 4.27642e+06 4.27642e+06 4.25498e+06 4.25498e+06 4.23366e+06 4.23366e+06 4.21244e+06 4.21244e+06 4.19133e+06 4.19133e+06 4.17033e+06 4.17033e+06 4.14943e+06 4.14943e+06 4.12864e+06 4.12864e+06 4.10796e+06 4.10796e+06 4.08738e+06 4.08738e+06 4.06691e+06 4.06691e+06 4.04654e+06 4.04654e+06 4.02628e+06 4.02628e+06 4.00612e+06 4.00612e+06 3.98606e+06 3.98606e+06 3.9661e+06 3.9661e+06 3.94625e+06 3.94625e+06 3.9265e+06 3.9265e+06 3.90685e+06 3.90685e+06 3.88731e+06 3.88731e+06 3.86786e+06 3.86786e+06 3.84851e+06 3.84851e+06 3.82926e+06 3.82926e+06 3.81011e+06 3.81011e+06 3.79106e+06 3.79106e+06 3.77211e+06 3.77211e+06 3.75326e+06 3.75326e+06 3.7345e+06 3.7345e+06 3.71584e+06 3.71584e+06 3.69728e+06 3.69728e+06 3.67881e+06 3.67881e+06 3.66044e+06 3.66044e+06 3.64216e+06 3.64216e+06 3.62397e+06 3.62397e+06 3.60589e+06 3.60589e+06 3.58789e+06 3.58789e+06 3.56999e+06 3.56999e+06 3.55218e+06 3.55218e+06 3.53446e+06 3.53446e+06 3.51684e+06 3.51684e+06 3.4993e+06 3.4993e+06 3.48186e+06 3.48186e+06 3.46451e+06 3.46451e+06 3.44725e+06 3.44725e+06 3.43008e+06 3.43008e+06 3.41299e+06 3.41299e+06 3.396e+06 3.396e+06 3.37909e+06 3.37909e+06 3.36227e+06 3.36227e+06 3.34554e+06 3.34554e+06 3.3289e+06 3.3289e+06 3.31234e+06 3.31234e+06 3.29587e+06 3.29587e+06 3.27949e+06 3.27949e+06 3.26319e+06 3.26319e+06 3.24697e+06 3.24697e+06 3.23084e+06 3.23084e+06 3.21479e+06 3.21479e+06 3.19883e+06 3.19883e+06 3.18295e+06 3.18295e+06 3.16715e+06 3.16715e+06 3.15144e+06 3.15144e+06 3.13581e+06 3.13581e+06 3.12025e+06 3.12025e+06 3.10478e+06 3.10478e+06 3.08939e+06 3.08939e+06 3.07408e+06 3.07408e+06 3.05885e+06 3.05885e+06 3.0437e+06 3.0437e+06 3.02863e+06 3.02863e+06 3.01364e+06 3.01364e+06 2.99872e+06 2.99872e+06 2.98389e+06 2.98389e+06 2.96913e+06 2.96913e+06 2.95444e+06 2.95444e+06 2.93984e+06 2.93984e+06 2.92531e+06 2.92531e+06 2.91085e+06 2.91085e+06 2.89647e+06 2.89647e+06 2.88217e+06 2.88217e+06 2.86794e+06 2.86794e+06 2.85378e+06 2.85378e+06 2.8397e+06 2.8397e+06 2.82569e+06 2.82569e+06 2.81176e+06 2.81176e+06 2.79789e+06 2.79789e+06 2.7841e+06 2.7841e+06 2.77038e+06 2.77038e+06 2.75674e+06 2.75674e+06 2.74316e+06 2.74316e+06 2.72965e+06 2.72965e+06 2.71622e+06 2.71622e+06 2.70285e+06 2.70285e+06 2.68955e+06 2.68955e+06 2.67633e+06 2.67633e+06 2.66317e+06 2.66317e+06 2.65008e+06 2.65008e+06 2.63706e+06 2.63706e+06 2.6241e+06 2.6241e+06 2.61121e+06 2.61121e+06 2.59839e+06 2.59839e+06 2.58564e+06 2.58564e+06 2.57295e+06 2.57295e+06 2.56033e+06 2.56033e+06 2.54777e+06 2.54777e+06 2.53528e+06 2.53528e+06 2.52285e+06 2.52285e+06 2.51049e+06 2.51049e+06 2.49819e+06 2.49819e+06 2.48596e+06 2.48596e+06 2.47378e+06 2.47378e+06 2.46168e+06 2.46168e+06 2.44963e+06 2.44963e+06 2.43765e+06 2.43765e+06 2.42572e+06 2.42572e+06 2.41386e+06 2.41386e+06 2.40206e+06 2.40206e+06 2.39033e+06 2.39033e+06 2.37865e+06 2.37865e+06 2.36703e+06 2.36703e+06 2.35547e+06 2.35547e+06 2.34398e+06 2.34398e+06 2.33254e+06 2.33254e+06 2.32116e+06 2.32116e+06 2.30984e+06 2.30984e+06 2.29857e+06 2.29857e+06 2.28737e+06 2.28737e+06 2.27622e+06 2.27622e+06 2.26513e+06 2.26513e+06 2.2541e+06 2.2541e+06 2.24312e+06 2.24312e+06 2.2322e+06 2.2322e+06 2.22134e+06 2.22134e+06 2.21053e+06 2.21053e+06 2.19978e+06 2.19978e+06 2.18908e+06 2.18908e+06 2.17844e+06 2.17844e+06 2.16785e+06 2.16785e+06 2.15731e+06 2.15731e+06 2.14683e+06 2.14683e+06 2.1364e+06 2.1364e+06 2.12603e+06 2.12603e+06 2.11571e+06 2.11571e+06 2.10544e+06 2.10544e+06 2.09522e+06 2.09522e+06 2.08506e+06 2.08506e+06 2.07495e+06 2.07495e+06 2.06489e+06 2.06489e+06 2.05488e+06 2.05488e+06 2.04492e+06 2.04492e+06 2.03501e+06 2.03501e+06 2.02515e+06 2.02515e+06 2.01534e+06 2.01534e+06 2.00559e+06 2.00559e+06 1.99588e+06 1.99588e+06 1.98622e+06 1.98622e+06 1.97661e+06 1.97661e+06 1.96705e+06 1.96705e+06 1.95753e+06 1.95753e+06 1.94807e+06 1.94807e+06 1.93865e+06 1.93865e+06 1.92928e+06 1.92928e+06 1.91996e+06 1.91996e+06 1.91068e+06 1.91068e+06 1.90145e+06 1.90145e+06 1.89227e+06 1.89227e+06 1.88313e+06 1.88313e+06 1.87404e+06 1.87404e+06 1.865e+06 1.865e+06 1.856e+06 1.856e+06 1.84705e+06 1.84705e+06 1.83814e+06 1.83814e+06 1.82927e+06 1.82927e+06 1.82045e+06 1.82045e+06 1.81168e+06 1.81168e+06 1.80294e+06 1.80294e+06 1.79426e+06 1.79426e+06 1.78561e+06 1.78561e+06 1.77701e+06 1.77701e+06 1.76845e+06 1.76845e+06 1.75993e+06 1.75993e+06 1.75146e+06 1.75146e+06 1.74303e+06 1.74303e+06 1.73464e+06 1.73464e+06 1.72629e+06 1.72629e+06 1.71799e+06 1.71799e+06 1.70972e+06 1.70972e+06 1.7015e+06 1.7015e+06 1.69331e+06 1.69331e+06 1.68517e+06 1.68517e+06 1.67707e+06 1.67707e+06 1.66901e+06 1.66901e+06 1.66098e+06 1.66098e+06 1.653e+06 1.653e+06 1.64506e+06 1.64506e+06 1.63715e+06 1.63715e+06 1.62929e+06 1.62929e+06 1.62146e+06 1.62146e+06 1.61367e+06 1.61367e+06 1.60592e+06 1.60592e+06 1.59821e+06 1.59821e+06 1.59054e+06 1.59054e+06 1.5829e+06 1.5829e+06 1.5753e+06 1.5753e+06 1.56774e+06 1.56774e+06 1.56022e+06 1.56022e+06 1.55273e+06 1.55273e+06 1.54528e+06 1.54528e+06 1.53787e+06 1.53787e+06 1.53049e+06 1.53049e+06 1.52315e+06 1.52315e+06 1.51584e+06 1.51584e+06 1.50857e+06 1.50857e+06 1.50133e+06 1.50133e+06 1.49413e+06 1.49413e+06 1.48697e+06 1.48697e+06 1.47984e+06 1.47984e+06 1.47274e+06 1.47274e+06 1.46568e+06 1.46568e+06 1.45865e+06 1.45865e+06 1.45166e+06 1.45166e+06 1.4447e+06 1.4447e+06 1.43778e+06 1.43778e+06 1.43088e+06 1.43088e+06 1.42402e+06 1.42402e+06 1.4172e+06 1.4172e+06 1.41041e+06 1.41041e+06 1.40365e+06 1.40365e+06 1.39692e+06 1.39692e+06 1.39022e+06 1.39022e+06 1.38356e+06 1.38356e+06 1.37693e+06 1.37693e+06 1.37033e+06 1.37033e+06 1.36376e+06 1.36376e+06 1.35722e+06 1.35722e+06 1.35072e+06 1.35072e+06 1.34424e+06 1.34424e+06 1.3378e+06 1.3378e+06 1.33139e+06 1.33139e+06 1.32501e+06 1.32501e+06 1.31865e+06 1.31865e+06 1.31233e+06 1.31233e+06 1.30604e+06 1.30604e+06 1.29978e+06 1.29978e+06 1.29355e+06 1.29355e+06 1.28735e+06 1.28735e+06 1.28117e+06 1.28117e+06 1.27503e+06 1.27503e+06 1.26892e+06 1.26892e+06 1.26283e+06 1.26283e+06 1.25677e+06 1.25677e+06 1.25074e+06 1.25074e+06 1.24474e+06 1.24474e+06 1.23877e+06 1.23877e+06 1.23283e+06 1.23283e+06 1.22691e+06 1.22691e+06 1.22103e+06 1.22103e+06 1.21517e+06 1.21517e+06 1.20933e+06 1.20933e+06 1.20353e+06 1.20353e+06 1.19775e+06 1.19775e+06 1.192e+06 1.192e+06 1.18628e+06 1.18628e+06 1.18058e+06 1.18058e+06 1.17491e+06 1.17491e+06 1.16926e+06 1.16926e+06 1.16364e+06 1.16364e+06 1.15805e+06 1.15805e+06 1.15249e+06 1.15249e+06 1.14695e+06 1.14695e+06 1.14143e+06 1.14143e+06 1.13594e+06 1.13594e+06 1.13048e+06 1.13048e+06 1.12504e+06 1.12504e+06 1.11963e+06 1.11963e+06 1.11424e+06 1.11424e+06 1.10888e+06 1.10888e+06 1.10354e+06 1.10354e+06 1.09823e+06 1.09823e+06 1.09294e+06 1.09294e+06 1.08767e+06 1.08767e+06 1.08243e+06 1.08243e+06 1.07721e+06 1.07721e+06 1.07202e+06 1.07202e+06 1.06685e+06 1.06685e+06 1.06171e+06 1.06171e+06 1.05659e+06 1.05659e+06 1.05149e+06 1.05149e+06 1.04641e+06 1.04641e+06 1.04136e+06 1.04136e+06 1.03633e+06 1.03633e+06 1.03133e+06 1.03133e+06 1.02634e+06 1.02634e+06 1.02138e+06 1.02138e+06 1.01644e+06 1.01644e+06 1.01153e+06 1.01153e+06 1.00664e+06 1.00664e+06 1.00176e+06 1.00176e+06 996916 996916 992089 992089 987284 987284 982500 982500 977738 977738 972998 972998 968279 968279 963581 963581 958904 958904 954248 954248 949614 949614 945000 945000 940406 940406 935833 935833 931281 931281 926749 926749 922237 922237 917745 917745 913274 913274 908822 908822 904390 904390 899977 899977 895585 895585 891211 891211 886857 886857 882523 882523 878207 878207 873911 873911 869634 869634 865375 865375 861135 861135 856914 856914 852712 852712 848527 848527 844362 844362 840214 840214 836085 836085 831974 831974 827881 827881 823805 823805 819748 819748 815708 815708 811686 811686 807681 807681 803694 803694 799724 799724 795771 795771 791835 791835 787917 787917 784015 784015 780131 780131 776263 776263 772412 772412 768577 768577 764759 764759 760958 760958 757172 757172 753403 753403 749651 749651 745914 745914 742193 742193 738489 738489 734800 734800 731127 731127 727469 727469 723828 723828 720201 720201 716591 716591 712995 712995 709415 709415 705850 705850 702300 702300 698766 698766 695246 695246 691741 691741 688251 688251 684776 684776 681315 681315 677869 677869 674438 674438 671021 671021 667618 667618 664230 664230 660855 660855 657495 657495 654150 654150 650818 650818 647500 647500 644196 644196 640905 640905 637629 637629 634366 634366 631117 631117 627881 627881 624659 624659 621450 621450 618254 618254 615072 615072 611902 611902 608746 608746 605603 605603 602473 602473 599356 599356 596252 596252 593161 593161 590082 590082 587016 587016 583962 583962 580921 580921 577893 577893 574877 574877 571873 571873 568882 568882 565903 565903 562936 562936 559981 559981 557038 557038 554107 554107 551188 551188 548281 548281 545386 545386 542502 542502 539630 539630 536770 536770 533922 533922 531085 531085 528259 528259 525445 525445 522642 522642 519850 519850 517070 517070 514301 514301 511543 511543 508796 508796 506060 506060 503335 503335 500621 500621 497918 497918 495226 495226 492544 492544 489873 489873 487213 487213 484563 484563 481924 481924 479296 479296 476678 476678 474070 474070 471473 471473 468886 468886 466309 466309 463742 463742 461186 461186 458639 458639 456103 456103 453577 453577 451060 451060 448554 448554 446057 446057 443570 443570 441093 441093 438626 438626 436169 436169 433721 433721 431282 431282 428853 428853 426434 426434 424024 424024 421623 421623 419232 419232 416850 416850 414478 414478 412114 412114 409760 409760 407415 407415 405079 405079 402752 402752 400434 400434 398126 398126 395826 395826 393534 393534 391252 391252 388979 388979 386714 386714 384458 384458 382211 382211 379972 379972 377742 377742 375520 375520 373307 373307 371103 371103 368907 368907 366719 366719 364540 364540 362368 362368 360206 360206 358051 358051 355905 355905 353767 353767 351637 351637 349515 349515 347401 347401 345295 345295 343197 343197 341107 341107 339025 339025 336951 336951 334885 334885 332827 332827 330776 330776 328733 328733 326698 326698 324670 324670 322650 322650 320637 320637 318633 318633 316635 316635 314645 314645 312663 312663 310688 310688 308720 308720 306760 306760 304807 304807 302861 302861 300923 300923 298992 298992 297068 297068 295151 295151 293241 293241 291339 291339 289443 289443 287554 287554 285673 285673 283798 283798 281931 281931 280070 280070 278216 278216 276369 276369 274529 274529 272695 272695 270869 270869 269049 269049 267235 267235 265429 265429 263629 263629 261835 261835 260048 260048 258268 258268 256494 256494 254727 254727 252966 252966 251212 251212 249464 249464 247722 247722 245987 245987 244258 244258 242535 242535 240819 240819 239109 239109 237405 237405 235707 235707 234015 234015 232330 232330 230650 230650 228977 228977 227310 227310 225648 225648 223993 223993 222344 222344 220701 220701 219063 219063 217432 217432 215806 215806 214186 214186 212572 212572 210964 210964 209361 209361 207764 207764 206173 206173 204588 204588 203008 203008 201434 201434 199866 199866 198303 198303 196746 196746 195194 195194 193648 193648 192107 192107 190572 190572 189042 189042 187518 187518 185999 185999 184486 184486 182977 182977 181474 181474 179977 179977 178485 178485 176998 176998 175516 175516 174040 174040 172568 172568 171102 171102 169641 169641 168185 168185 166735 166735 165289 165289 163849 163849 162413 162413 160983 160983 159557 159557 158137 158137 156721 156721 155311 155311 153905 153905 152505 152505 151109 151109 149718 149718 148332 148332 146951 146951 145574 145574 144202 144202 142836 142836 141473 141473 140116 140116 138763 138763 137415 137415 136072 136072 134733 134733 133399 133399 132070 132070 130745 130745 129424 129424 128109 128109 126797 126797 125491 125491 124189 124189 122891 122891 121598 121598 120309 120309 119024 119024 117744 117744 116469 116469 115198 115198 113931 113931 112668 112668 111410 111410 110156 110156 108906 108906 107661 107661 106420 106420 105183 105183 103951 103951 102722 102722 101498 101498 100278 100278 99061.8 99061.8 97849.9 97849.9 96642.2 96642.2 95438.6 95438.6 94239.1 94239.1 93043.6 93043.6 91852.2 91852.2 90664.9 90664.9 89481.5 89481.5 88302.1 88302.1 87126.8 87126.8 85955.4 85955.4 84787.9 84787.9 83624.4 83624.4 82464.8 82464.8 81309.1 81309.1 80157.4 80157.4 79009.4 79009.4 77865.4 77865.4 76725.2 76725.2 75588.8 75588.8 74456.2 74456.2 73327.5 73327.5 72202.5 72202.5 71081.3 71081.3 69963.8 69963.8 68850.1 68850.1 67740.1 67740.1 66633.9 66633.9 65531.3 65531.3 64432.4 64432.4 63337.2 63337.2 62245.6 62245.6 61157.7 61157.7 60073.3 60073.3 58992.6 58992.6 57915.5 57915.5 56842 56842 55772.1 55772.1 54705.7 54705.7 53642.8 53642.8 52583.5 52583.5 51527.7 51527.7 50475.4 50475.4 49426.5 49426.5 48381.2 48381.2 47339.3 47339.3 46300.8 46300.8 45265.8 45265.8 44234.2 44234.2 43206 43206 42181.2 42181.2 41159.8 41159.8 40141.8 40141.8 39127.1 39127.1 38115.7 38115.7 37107.7 37107.7 36103 36103 35101.6 35101.6 34103.5 34103.5 33108.7 33108.7 32117.1 32117.1 31128.8 31128.8 30143.7 30143.7 29161.8 29161.8 28183.2 28183.2 27207.8 27207.8 26235.6 26235.6 25266.5 25266.5 24300.6 24300.6 23337.9 23337.9 22378.3 22378.3 21421.8 21421.8 20468.5 20468.5 19518.3 19518.3 18571.1 18571.1 17627.1 17627.1 16686.1 16686.1 15748.2 15748.2 14813.3 14813.3 13881.5 13881.5 12952.7 12952.7 12026.9 12026.9 11104.1 11104.1 10184.3 10184.3 9267.54 9267.54 8353.7 8353.7 7442.83 7442.83 6534.9 6534.9 5629.91 5629.91 4727.85 4727.85 3828.7 3828.7 2932.46 2932.46 2039.11 2039.11 1148.65 1148.65 261.055 261.055 -623.676 -623.676 -1505.56 -1505.56 -2384.6 -2384.6 -3260.8 -3260.8 -4134.19 -4134.19 -5004.77 -5004.77 -5872.56 -5872.56 -6737.55 -6737.55 -7599.76 -7599.76 -8459.21 -8459.21 -9315.9 -9315.9 -10169.8 -10169.8 -11021 -11021 -11869.5 -11869.5 -12715.3 -12715.3 -13558.3 -13558.3 -14398.7 -14398.7 -15236.4 -15236.4 -16071.4 -16071.4 -16903.7 -16903.7 -17733.3 -17733.3 -18560.4 -18560.4 -19384.7 -19384.7 -20206.5 -20206.5 -21025.6 -21025.6 -21842.1 -21842.1 -22656 -22656 -23467.4 -23467.4 -24276.1 -24276.1 -25082.3 -25082.3 -25885.9 -25885.9 -26687 -26687 -27485.5 -27485.5 -28281.4 -28281.4 -29074.9 -29074.9 -29865.8 -29865.8 -30654.3 -30654.3 -31440.2 -31440.2 -32223.6 -32223.6 -33004.6 -33004.6 -33783.1 -33783.1 -34559.1 -34559.1 -35332.7 -35332.7 -36103.8 -36103.8 -36872.5 -36872.5 -37638.7 -37638.7 -38402.6 -38402.6 -39164 -39164 -39923 -39923 -40679.7 -40679.7 -41433.9 -41433.9 -42185.8 -42185.8 -42935.3 -42935.3 -43682.4 -43682.4 -44427.2 -44427.2 -45169.7 -45169.7 -45909.8 -45909.8 -46647.6 -46647.6 -47383.1 -47383.1 -48116.3 -48116.3 -48847.1 -48847.1 -49575.7 -49575.7 -50302 -50302 -51026 -51026 -51747.8 -51747.8 -52467.2 -52467.2 -53184.5 -53184.5 -53899.5 -53899.5 -54612.2 -54612.2 -55322.7 -55322.7 -56031 -56031 -56737.1 -56737.1 -57441 -57441 -58142.7 -58142.7 -58842.2 -58842.2 -59539.5 -59539.5 -60234.6 -60234.6 -60927.6 -60927.6 -61618.4 -61618.4 -62307.1 -62307.1 -62993.6 -62993.6 -63678 -63678 -64360.2 -64360.2 -65040.3 -65040.3 -65718.4 -65718.4 -66394.3 -66394.3 -67068.1 -67068.1 -67739.8 -67739.8 -68409.4 -68409.4 -69077 -69077 -69742.4 -69742.4 -70405.8 -70405.8 -71067.2 -71067.2 -71726.5 -71726.5 -72383.8 -72383.8 -73039 -73039 -73692.2 -73692.2 -74343.4 -74343.4 -74992.6 -74992.6 -75639.7 -75639.7 -76284.9 -76284.9 -76928.1 -76928.1 -77569.2 -77569.2 -78208.4 -78208.4 -78845.7 -788