# vtk DataFile Version 3.0
#This file was generated by the deal.II library on 2020/9/6 at 3:38:19
ASCII
DATASET UNSTRUCTURED_GRID

POINTS 4096 double
1.5 0 0
1.5481 0 0
1.5481 0 0
1.59619 0 0
1.59619 0 0
1.64429 0 0
1.64429 0 0
1.69238 0 0
1.69238 0 0
1.74048 0 0
1.74048 0 0
1.78857 0 0
1.78857 0 0
1.83667 0 0
1.83667 0 0
1.88477 0 0
1.88477 0 0
1.93286 0 0
1.93286 0 0
1.98096 0 0
1.98096 0 0
2.02905 0 0
2.02905 0 0
2.07715 0 0
2.07715 0 0
2.12524 0 0
2.12524 0 0
2.17334 0 0
2.17334 0 0
2.22144 0 0
2.22144 0 0
2.26953 0 0
2.26953 0 0
2.31763 0 0
2.31763 0 0
2.36572 0 0
2.36572 0 0
2.41382 0 0
2.41382 0 0
2.46191 0 0
2.46191 0 0
2.51001 0 0
2.51001 0 0
2.55811 0 0
2.55811 0 0
2.6062 0 0
2.6062 0 0
2.6543 0 0
2.6543 0 0
2.70239 0 0
2.70239 0 0
2.75049 0 0
2.75049 0 0
2.79858 0 0
2.79858 0 0
2.84668 0 0
2.84668 0 0
2.89478 0 0
2.89478 0 0
2.94287 0 0
2.94287 0 0
2.99097 0 0
2.99097 0 0
3.03906 0 0
3.03906 0 0
3.08716 0 0
3.08716 0 0
3.13525 0 0
3.13525 0 0
3.18335 0 0
3.18335 0 0
3.23145 0 0
3.23145 0 0
3.27954 0 0
3.27954 0 0
3.32764 0 0
3.32764 0 0
3.37573 0 0
3.37573 0 0
3.42383 0 0
3.42383 0 0
3.47192 0 0
3.47192 0 0
3.52002 0 0
3.52002 0 0
3.56812 0 0
3.56812 0 0
3.61621 0 0
3.61621 0 0
3.66431 0 0
3.66431 0 0
3.7124 0 0
3.7124 0 0
3.7605 0 0
3.7605 0 0
3.80859 0 0
3.80859 0 0
3.85669 0 0
3.85669 0 0
3.90479 0 0
3.90479 0 0
3.95288 0 0
3.95288 0 0
4.00098 0 0
4.00098 0 0
4.04907 0 0
4.04907 0 0
4.09717 0 0
4.09717 0 0
4.14526 0 0
4.14526 0 0
4.19336 0 0
4.19336 0 0
4.24146 0 0
4.24146 0 0
4.28955 0 0
4.28955 0 0
4.33765 0 0
4.33765 0 0
4.38574 0 0
4.38574 0 0
4.43384 0 0
4.43384 0 0
4.48193 0 0
4.48193 0 0
4.53003 0 0
4.53003 0 0
4.57812 0 0
4.57812 0 0
4.62622 0 0
4.62622 0 0
4.67432 0 0
4.67432 0 0
4.72241 0 0
4.72241 0 0
4.77051 0 0
4.77051 0 0
4.8186 0 0
4.8186 0 0
4.8667 0 0
4.8667 0 0
4.91479 0 0
4.91479 0 0
4.96289 0 0
4.96289 0 0
5.01099 0 0
5.01099 0 0
5.05908 0 0
5.05908 0 0
5.10718 0 0
5.10718 0 0
5.15527 0 0
5.15527 0 0
5.20337 0 0
5.20337 0 0
5.25146 0 0
5.25146 0 0
5.29956 0 0
5.29956 0 0
5.34766 0 0
5.34766 0 0
5.39575 0 0
5.39575 0 0
5.44385 0 0
5.44385 0 0
5.49194 0 0
5.49194 0 0
5.54004 0 0
5.54004 0 0
5.58813 0 0
5.58813 0 0
5.63623 0 0
5.63623 0 0
5.68433 0 0
5.68433 0 0
5.73242 0 0
5.73242 0 0
5.78052 0 0
5.78052 0 0
5.82861 0 0
5.82861 0 0
5.87671 0 0
5.87671 0 0
5.9248 0 0
5.9248 0 0
5.9729 0 0
5.9729 0 0
6.021 0 0
6.021 0 0
6.06909 0 0
6.06909 0 0
6.11719 0 0
6.11719 0 0
6.16528 0 0
6.16528 0 0
6.21338 0 0
6.21338 0 0
6.26147 0 0
6.26147 0 0
6.30957 0 0
6.30957 0 0
6.35767 0 0
6.35767 0 0
6.40576 0 0
6.40576 0 0
6.45386 0 0
6.45386 0 0
6.50195 0 0
6.50195 0 0
6.55005 0 0
6.55005 0 0
6.59814 0 0
6.59814 0 0
6.64624 0 0
6.64624 0 0
6.69434 0 0
6.69434 0 0
6.74243 0 0
6.74243 0 0
6.79053 0 0
6.79053 0 0
6.83862 0 0
6.83862 0 0
6.88672 0 0
6.88672 0 0
6.93481 0 0
6.93481 0 0
6.98291 0 0
6.98291 0 0
7.03101 0 0
7.03101 0 0
7.0791 0 0
7.0791 0 0
7.1272 0 0
7.1272 0 0
7.17529 0 0
7.17529 0 0
7.22339 0 0
7.22339 0 0
7.27148 0 0
7.27148 0 0
7.31958 0 0
7.31958 0 0
7.36768 0 0
7.36768 0 0
7.41577 0 0
7.41577 0 0
7.46387 0 0
7.46387 0 0
7.51196 0 0
7.51196 0 0
7.56006 0 0
7.56006 0 0
7.60815 0 0
7.60815 0 0
7.65625 0 0
7.65625 0 0
7.70435 0 0
7.70435 0 0
7.75244 0 0
7.75244 0 0
7.80054 0 0
7.80054 0 0
7.84863 0 0
7.84863 0 0
7.89673 0 0
7.89673 0 0
7.94482 0 0
7.94482 0 0
7.99292 0 0
7.99292 0 0
8.04102 0 0
8.04102 0 0
8.08911 0 0
8.08911 0 0
8.13721 0 0
8.13721 0 0
8.1853 0 0
8.1853 0 0
8.2334 0 0
8.2334 0 0
8.28149 0 0
8.28149 0 0
8.32959 0 0
8.32959 0 0
8.37769 0 0
8.37769 0 0
8.42578 0 0
8.42578 0 0
8.47388 0 0
8.47388 0 0
8.52197 0 0
8.52197 0 0
8.57007 0 0
8.57007 0 0
8.61816 0 0
8.61816 0 0
8.66626 0 0
8.66626 0 0
8.71436 0 0
8.71436 0 0
8.76245 0 0
8.76245 0 0
8.81055 0 0
8.81055 0 0
8.85864 0 0
8.85864 0 0
8.90674 0 0
8.90674 0 0
8.95483 0 0
8.95483 0 0
9.00293 0 0
9.00293 0 0
9.05103 0 0
9.05103 0 0
9.09912 0 0
9.09912 0 0
9.14722 0 0
9.14722 0 0
9.19531 0 0
9.19531 0 0
9.24341 0 0
9.24341 0 0
9.2915 0 0
9.2915 0 0
9.3396 0 0
9.3396 0 0
9.3877 0 0
9.3877 0 0
9.43579 0 0
9.43579 0 0
9.48389 0 0
9.48389 0 0
9.53198 0 0
9.53198 0 0
9.58008 0 0
9.58008 0 0
9.62817 0 0
9.62817 0 0
9.67627 0 0
9.67627 0 0
9.72437 0 0
9.72437 0 0
9.77246 0 0
9.77246 0 0
9.82056 0 0
9.82056 0 0
9.86865 0 0
9.86865 0 0
9.91675 0 0
9.91675 0 0
9.96484 0 0
9.96484 0 0
10.0129 0 0
10.0129 0 0
10.061 0 0
10.061 0 0
10.1091 0 0
10.1091 0 0
10.1572 0 0
10.1572 0 0
10.2053 0 0
10.2053 0 0
10.2534 0 0
10.2534 0 0
10.3015 0 0
10.3015 0 0
10.3496 0 0
10.3496 0 0
10.3977 0 0
10.3977 0 0
10.4458 0 0
10.4458 0 0
10.4939 0 0
10.4939 0 0
10.542 0 0
10.542 0 0
10.5901 0 0
10.5901 0 0
10.6382 0 0
10.6382 0 0
10.6863 0 0
10.6863 0 0
10.7344 0 0
10.7344 0 0
10.7825 0 0
10.7825 0 0
10.8306 0 0
10.8306 0 0
10.8787 0 0
10.8787 0 0
10.9268 0 0
10.9268 0 0
10.9749 0 0
10.9749 0 0
11.0229 0 0
11.0229 0 0
11.071 0 0
11.071 0 0
11.1191 0 0
11.1191 0 0
11.1672 0 0
11.1672 0 0
11.2153 0 0
11.2153 0 0
11.2634 0 0
11.2634 0 0
11.3115 0 0
11.3115 0 0
11.3596 0 0
11.3596 0 0
11.4077 0 0
11.4077 0 0
11.4558 0 0
11.4558 0 0
11.5039 0 0
11.5039 0 0
11.552 0 0
11.552 0 0
11.6001 0 0
11.6001 0 0
11.6482 0 0
11.6482 0 0
11.6963 0 0
11.6963 0 0
11.7444 0 0
11.7444 0 0
11.7925 0 0
11.7925 0 0
11.8406 0 0
11.8406 0 0
11.8887 0 0
11.8887 0 0
11.9368 0 0
11.9368 0 0
11.9849 0 0
11.9849 0 0
12.033 0 0
12.033 0 0
12.0811 0 0
12.0811 0 0
12.1292 0 0
12.1292 0 0
12.1772 0 0
12.1772 0 0
12.2253 0 0
12.2253 0 0
12.2734 0 0
12.2734 0 0
12.3215 0 0
12.3215 0 0
12.3696 0 0
12.3696 0 0
12.4177 0 0
12.4177 0 0
12.4658 0 0
12.4658 0 0
12.5139 0 0
12.5139 0 0
12.562 0 0
12.562 0 0
12.6101 0 0
12.6101 0 0
12.6582 0 0
12.6582 0 0
12.7063 0 0
12.7063 0 0
12.7544 0 0
12.7544 0 0
12.8025 0 0
12.8025 0 0
12.8506 0 0
12.8506 0 0
12.8987 0 0
12.8987 0 0
12.9468 0 0
12.9468 0 0
12.9949 0 0
12.9949 0 0
13.043 0 0
13.043 0 0
13.0911 0 0
13.0911 0 0
13.1392 0 0
13.1392 0 0
13.1873 0 0
13.1873 0 0
13.2354 0 0
13.2354 0 0
13.2834 0 0
13.2834 0 0
13.3315 0 0
13.3315 0 0
13.3796 0 0
13.3796 0 0
13.4277 0 0
13.4277 0 0
13.4758 0 0
13.4758 0 0
13.5239 0 0
13.5239 0 0
13.572 0 0
13.572 0 0
13.6201 0 0
13.6201 0 0
13.6682 0 0
13.6682 0 0
13.7163 0 0
13.7163 0 0
13.7644 0 0
13.7644 0 0
13.8125 0 0
13.8125 0 0
13.8606 0 0
13.8606 0 0
13.9087 0 0
13.9087 0 0
13.9568 0 0
13.9568 0 0
14.0049 0 0
14.0049 0 0
14.053 0 0
14.053 0 0
14.1011 0 0
14.1011 0 0
14.1492 0 0
14.1492 0 0
14.1973 0 0
14.1973 0 0
14.2454 0 0
14.2454 0 0
14.2935 0 0
14.2935 0 0
14.3416 0 0
14.3416 0 0
14.3896 0 0
14.3896 0 0
14.4377 0 0
14.4377 0 0
14.4858 0 0
14.4858 0 0
14.5339 0 0
14.5339 0 0
14.582 0 0
14.582 0 0
14.6301 0 0
14.6301 0 0
14.6782 0 0
14.6782 0 0
14.7263 0 0
14.7263 0 0
14.7744 0 0
14.7744 0 0
14.8225 0 0
14.8225 0 0
14.8706 0 0
14.8706 0 0
14.9187 0 0
14.9187 0 0
14.9668 0 0
14.9668 0 0
15.0149 0 0
15.0149 0 0
15.063 0 0
15.063 0 0
15.1111 0 0
15.1111 0 0
15.1592 0 0
15.1592 0 0
15.2073 0 0
15.2073 0 0
15.2554 0 0
15.2554 0 0
15.3035 0 0
15.3035 0 0
15.3516 0 0
15.3516 0 0
15.3997 0 0
15.3997 0 0
15.4478 0 0
15.4478 0 0
15.4958 0 0
15.4958 0 0
15.5439 0 0
15.5439 0 0
15.592 0 0
15.592 0 0
15.6401 0 0
15.6401 0 0
15.6882 0 0
15.6882 0 0
15.7363 0 0
15.7363 0 0
15.7844 0 0
15.7844 0 0
15.8325 0 0
15.8325 0 0
15.8806 0 0
15.8806 0 0
15.9287 0 0
15.9287 0 0
15.9768 0 0
15.9768 0 0
16.0249 0 0
16.0249 0 0
16.073 0 0
16.073 0 0
16.1211 0 0
16.1211 0 0
16.1692 0 0
16.1692 0 0
16.2173 0 0
16.2173 0 0
16.2654 0 0
16.2654 0 0
16.3135 0 0
16.3135 0 0
16.3616 0 0
16.3616 0 0
16.4097 0 0
16.4097 0 0
16.4578 0 0
16.4578 0 0
16.5059 0 0
16.5059 0 0
16.554 0 0
16.554 0 0
16.6021 0 0
16.6021 0 0
16.6501 0 0
16.6501 0 0
16.6982 0 0
16.6982 0 0
16.7463 0 0
16.7463 0 0
16.7944 0 0
16.7944 0 0
16.8425 0 0
16.8425 0 0
16.8906 0 0
16.8906 0 0
16.9387 0 0
16.9387 0 0
16.9868 0 0
16.9868 0 0
17.0349 0 0
17.0349 0 0
17.083 0 0
17.083 0 0
17.1311 0 0
17.1311 0 0
17.1792 0 0
17.1792 0 0
17.2273 0 0
17.2273 0 0
17.2754 0 0
17.2754 0 0
17.3235 0 0
17.3235 0 0
17.3716 0 0
17.3716 0 0
17.4197 0 0
17.4197 0 0
17.4678 0 0
17.4678 0 0
17.5159 0 0
17.5159 0 0
17.564 0 0
17.564 0 0
17.6121 0 0
17.6121 0 0
17.6602 0 0
17.6602 0 0
17.7083 0 0
17.7083 0 0
17.7563 0 0
17.7563 0 0
17.8044 0 0
17.8044 0 0
17.8525 0 0
17.8525 0 0
17.9006 0 0
17.9006 0 0
17.9487 0 0
17.9487 0 0
17.9968 0 0
17.9968 0 0
18.0449 0 0
18.0449 0 0
18.093 0 0
18.093 0 0
18.1411 0 0
18.1411 0 0
18.1892 0 0
18.1892 0 0
18.2373 0 0
18.2373 0 0
18.2854 0 0
18.2854 0 0
18.3335 0 0
18.3335 0 0
18.3816 0 0
18.3816 0 0
18.4297 0 0
18.4297 0 0
18.4778 0 0
18.4778 0 0
18.5259 0 0
18.5259 0 0
18.574 0 0
18.574 0 0
18.6221 0 0
18.6221 0 0
18.6702 0 0
18.6702 0 0
18.7183 0 0
18.7183 0 0
18.7664 0 0
18.7664 0 0
18.8145 0 0
18.8145 0 0
18.8625 0 0
18.8625 0 0
18.9106 0 0
18.9106 0 0
18.9587 0 0
18.9587 0 0
19.0068 0 0
19.0068 0 0
19.0549 0 0
19.0549 0 0
19.103 0 0
19.103 0 0
19.1511 0 0
19.1511 0 0
19.1992 0 0
19.1992 0 0
19.2473 0 0
19.2473 0 0
19.2954 0 0
19.2954 0 0
19.3435 0 0
19.3435 0 0
19.3916 0 0
19.3916 0 0
19.4397 0 0
19.4397 0 0
19.4878 0 0
19.4878 0 0
19.5359 0 0
19.5359 0 0
19.584 0 0
19.584 0 0
19.6321 0 0
19.6321 0 0
19.6802 0 0
19.6802 0 0
19.7283 0 0
19.7283 0 0
19.7764 0 0
19.7764 0 0
19.8245 0 0
19.8245 0 0
19.8726 0 0
19.8726 0 0
19.9207 0 0
19.9207 0 0
19.9688 0 0
19.9688 0 0
20.0168 0 0
20.0168 0 0
20.0649 0 0
20.0649 0 0
20.113 0 0
20.113 0 0
20.1611 0 0
20.1611 0 0
20.2092 0 0
20.2092 0 0
20.2573 0 0
20.2573 0 0
20.3054 0 0
20.3054 0 0
20.3535 0 0
20.3535 0 0
20.4016 0 0
20.4016 0 0
20.4497 0 0
20.4497 0 0
20.4978 0 0
20.4978 0 0
20.5459 0 0
20.5459 0 0
20.594 0 0
20.594 0 0
20.6421 0 0
20.6421 0 0
20.6902 0 0
20.6902 0 0
20.7383 0 0
20.7383 0 0
20.7864 0 0
20.7864 0 0
20.8345 0 0
20.8345 0 0
20.8826 0 0
20.8826 0 0
20.9307 0 0
20.9307 0 0
20.9788 0 0
20.9788 0 0
21.0269 0 0
21.0269 0 0
21.075 0 0
21.075 0 0
21.123 0 0
21.123 0 0
21.1711 0 0
21.1711 0 0
21.2192 0 0
21.2192 0 0
21.2673 0 0
21.2673 0 0
21.3154 0 0
21.3154 0 0
21.3635 0 0
21.3635 0 0
21.4116 0 0
[...]
POINT_DATA 4096
SCALARS solution_0 double 1
LOOKUP_TABLE default
5714.3 5603.81 5603.81 5501.33 5501.33 5406.04 5406.04 5317.18 5317.18 5234.13 5234.13 5156.32 5156.32 5083.24 5083.24 5014.45 5014.45 4949.56 4949.56 4888.21 4888.21 4830.1 4830.1 4774.95 4774.95 4722.5 4722.5 4672.53 4672.53 4624.84 4624.84 4579.24 4579.24 4535.57 4535.57 4493.68 4493.68 4453.43 4453.43 4414.71 4414.71 4377.39 4377.39 4341.37 4341.37 4306.57 4306.57 4272.9 4272.9 4240.27 4240.27 4208.62 4208.62 4177.89 4177.89 4148 4148 4118.92 4118.92 4090.58 4090.58 4062.93 4062.93 4035.95 4035.95 4009.57 4009.57 3983.78 3983.78 3958.53 3958.53 3933.79 3933.79 3909.54 3909.54 3885.74 3885.74 3862.37 3862.37 3839.4 3839.4 3816.82 3816.82 3794.61 3794.61 3772.74 3772.74 3751.2 3751.2 3729.97 3729.97 3709.04 3709.04 3688.38 3688.38 3668 3668 3647.87 3647.87 3627.98 3627.98 3608.33 3608.33 3588.9 3588.9 3569.69 3569.69 3550.68 3550.68 3531.86 3531.86 3513.23 3513.23 3494.78 3494.78 3476.51 3476.51 3458.4 3458.4 3440.46 3440.46 3422.67 3422.67 3405.03 3405.03 3387.53 3387.53 3370.17 3370.17 3352.95 3352.95 3335.86 3335.86 3318.9 3318.9 3302.06 3302.06 3285.34 3285.34 3268.74 3268.74 3252.25 3252.25 3235.87 3235.87 3219.6 3219.6 3203.43 3203.43 3187.37 3187.37 3171.4 3171.4 3155.54 3155.54 3139.77 3139.77 3124.09 3124.09 3108.51 3108.51 3093.01 3093.01 3077.61 3077.61 3062.29 3062.29 3047.05 3047.05 3031.91 3031.91 3016.84 3016.84 3001.85 3001.85 2986.95 2986.95 2972.12 2972.12 2957.37 2957.37 2942.7 2942.7 2928.1 2928.1 2913.58 2913.58 2899.14 2899.14 2884.76 2884.76 2870.46 2870.46 2856.23 2856.23 2842.07 2842.07 2827.98 2827.98 2813.96 2813.96 2800.01 2800.01 2786.13 2786.13 2772.32 2772.32 2758.57 2758.57 2744.89 2744.89 2731.27 2731.27 2717.72 2717.72 2704.24 2704.24 2690.82 2690.82 2677.46 2677.46 2664.17 2664.17 2650.94 2650.94 2637.77 2637.77 2624.67 2624.67 2611.63 2611.63 2598.65 2598.65 2585.73 2585.73 2572.88 2572.88 2560.08 2560.08 2547.35 2547.35 2534.67 2534.67 2522.06 2522.06 2509.5 2509.5 2497.01 2497.01 2484.57 2484.57 2472.19 2472.19 2459.87 2459.87 2447.61 2447.61 2435.41 2435.41 2423.27 2423.27 2411.18 2411.18 2399.15 2399.15 2387.18 2387.18 2375.26 2375.26 2363.41 2363.41 2351.6 2351.6 2339.86 2339.86 2328.17 2328.17 2316.54 2316.54 2304.96 2304.96 2293.44 2293.44 2281.97 2281.97 2270.56 2270.56 2259.2 2259.2 2247.9 2247.9 2236.65 2236.65 2225.45 2225.45 2214.31 2214.31 2203.23 2203.23 2192.2 2192.2 2181.22 2181.22 2170.29 2170.29 2159.42 2159.42 2148.6 2148.6 2137.83 2137.83 2127.12 2127.12 2116.45 2116.45 2105.84 2105.84 2095.29 2095.29 2084.78 2084.78 2074.32 2074.32 2063.92 2063.92 2053.57 2053.57 2043.27 2043.27 2033.02 2033.02 2022.82 2022.82 2012.67 2012.67 2002.57 2002.57 1992.52 1992.52 1982.52 1982.52 1972.57 1972.57 1962.67 1962.67 1952.82 1952.82 1943.01 1943.01 1933.26 1933.26 1923.56 1923.56 1913.9 1913.9 1904.29 1904.29 1894.73 1894.73 1885.22 1885.22 1875.76 1875.76 1866.34 1866.34 1856.97 1856.97 1847.65 1847.65 1838.37 1838.37 1829.14 1829.14 1819.96 1819.96 1810.83 1810.83 1801.74 1801.74 1792.7 1792.7 1783.7 1783.7 1774.75 1774.75 1765.84 1765.84 1756.98 1756.98 1748.16 1748.16 1739.39 1739.39 1730.67 1730.67 1721.98 1721.98 1713.35 1713.35 1704.75 1704.75 1696.2 1696.2 1687.7 1687.7 1679.23 1679.23 1670.82 1670.82 1662.44 1662.44 1654.11 1654.11 1645.82 1645.82 1637.57 1637.57 1629.36 1629.36 1621.2 1621.2 1613.08 1613.08 1605 1605 1596.96 1596.96 1588.97 1588.97 1581.01 1581.01 1573.1 1573.1 1565.22 1565.22 1557.39 1557.39 1549.6 1549.6 1541.85 1541.85 1534.14 1534.14 1526.46 1526.46 1518.83 1518.83 1511.24 1511.24 1503.69 1503.69 1496.17 1496.17 1488.7 1488.7 1481.26 1481.26 1473.86 1473.86 1466.5 1466.5 1459.18 1459.18 1451.9 1451.9 1444.65 1444.65 1437.44 1437.44 1430.27 1430.27 1423.14 1423.14 1416.04 1416.04 1408.99 1408.99 1401.96 1401.96 1394.98 1394.98 1388.03 1388.03 1381.11 1381.11 1374.24 1374.24 1367.4 1367.4 1360.59 1360.59 1353.82 1353.82 1347.08 1347.08 1340.38 1340.38 1333.72 1333.72 1327.09 1327.09 1320.49 1320.49 1313.93 1313.93 1307.41 1307.41 1300.91 1300.91 1294.45 1294.45 1288.03 1288.03 1281.64 1281.64 1275.28 1275.28 1268.95 1268.95 1262.66 1262.66 1256.4 1256.4 1250.17 1250.17 1243.98 1243.98 1237.82 1237.82 1231.68 1231.68 1225.59 1225.59 1219.52 1219.52 1213.49 1213.49 1207.48 1207.48 1201.51 1201.51 1195.57 1195.57 1189.66 1189.66 1183.78 1183.78 1177.93 1177.93 1172.11 1172.11 1166.33 1166.33 1160.57 1160.57 1154.84 1154.84 1149.14 1149.14 1143.48 1143.48 1137.84 1137.84 1132.23 1132.23 1126.65 1126.65 1121.1 1121.1 1115.58 1115.58 1110.08 1110.08 1104.62 1104.62 1099.18 1099.18 1093.77 1093.77 1088.39 1088.39 1083.04 1083.04 1077.72 1077.72 1072.42 1072.42 1067.15 1067.15 1061.91 1061.91 1056.69 1056.69 1051.51 1051.51 1046.35 1046.35 1041.21 1041.21 1036.1 1036.1 1031.02 1031.02 1025.97 1025.97 1020.94 1020.94 1015.94 1015.94 1010.96 1010.96 1006.01 1006.01 1001.09 1001.09 996.186 996.186 991.311 991.311 986.462 986.462 981.638 981.638 976.838 976.838 972.064 972.064 967.314 967.314 962.588 962.588 957.887 957.887 953.21 953.21 948.557 948.557 943.928 943.928 939.322 939.322 934.741 934.741 930.183 930.183 925.648 925.648 921.137 921.137 916.648 916.648 912.183 912.183 907.741 907.741 903.321 903.321 898.924 898.924 894.549 894.549 890.197 890.197 885.867 885.867 881.559 881.559 877.274 877.274 873.01 873.01 868.767 868.767 864.547 864.547 860.348 860.348 856.17 856.17 852.014 852.014 847.878 847.878 843.764 843.764 839.671 839.671 835.598 835.598 831.546 831.546 827.515 827.515 823.504 823.504 819.513 819.513 815.543 815.543 811.593 811.593 807.663 807.663 803.752 803.752 799.862 799.862 795.99 795.99 792.139 792.139 788.307 788.307 784.494 784.494 780.701 780.701 776.926 776.926 773.171 773.171 769.434 769.434 765.717 765.717 762.018 762.018 758.337 758.337 754.675 754.675 751.031 751.031 747.406 747.406 743.798 743.798 740.209 740.209 736.638 736.638 733.084 733.084 729.549 729.549 726.031 726.031 722.53 722.53 719.047 719.047 715.581 715.581 712.133 712.133 708.701 708.701 705.287 705.287 701.89 701.89 698.509 698.509 695.145 695.145 691.798 691.798 688.468 688.468 685.154 685.154 681.856 681.856 678.574 678.574 675.309 675.309 672.06 672.06 668.827 668.827 665.609 665.609 662.408 662.408 659.222 659.222 656.052 656.052 652.897 652.897 649.758 649.758 646.634 646.634 643.525 643.525 640.432 640.432 637.354 637.354 634.29 634.29 631.242 631.242 628.208 628.208 625.189 625.189 622.185 622.185 619.195 619.195 616.22 616.22 613.259 613.259 610.313 610.313 607.38 607.38 604.462 604.462 601.558 601.558 598.668 598.668 595.792 595.792 592.93 592.93 590.081 590.081 587.247 587.247 584.425 584.425 581.618 581.618 578.824 578.824 576.043 576.043 573.275 573.275 570.521 570.521 567.78 567.78 565.052 565.052 562.338 562.338 559.636 559.636 556.947 556.947 554.271 554.271 551.608 551.608 548.958 548.958 546.32 546.32 543.695 543.695 541.083 541.083 538.483 538.483 535.895 535.895 533.32 533.32 530.758 530.758 528.207 528.207 525.669 525.669 523.143 523.143 520.63 520.63 518.128 518.128 515.639 515.639 513.162 513.162 510.696 510.696 508.243 508.243 505.802 505.802 503.372 503.372 500.955 500.955 498.549 498.549 496.155 496.155 493.772 493.772 491.401 491.401 489.042 489.042 486.694 486.694 484.357 484.357 482.032 482.032 479.718 479.718 477.415 477.415 475.123 475.123 472.841 472.841 470.57 470.57 468.309 468.309 466.058 466.058 463.818 463.818 461.586 461.586 459.364 459.364 457.151 457.151 454.946 454.946 452.75 452.75 450.561 450.561 448.381 448.381 446.207 446.207 444.041 444.041 441.881 441.881 439.727 439.727 437.58 437.58 435.438 435.438 433.302 433.302 431.172 431.172 429.047 429.047 426.927 426.927 424.813 424.813 422.704 422.704 420.601 420.601 418.504 418.504 416.413 416.413 414.328 414.328 412.25 412.25 410.18 410.18 408.118 408.118 406.063 406.063 404.017 404.017 401.981 401.981 399.954 399.954 397.938 397.938 395.931 395.931 393.936 393.936 391.953 391.953 389.981 389.981 388.021 388.021 386.073 386.073 384.137 384.137 382.214 382.214 380.304 380.304 378.406 378.406 376.52 376.52 374.647 374.647 372.787 372.787 370.938 370.938 369.102 369.102 367.278 367.278 365.466 365.466 363.665 363.665 361.875 361.875 360.098 360.098 358.331 358.331 356.576 356.576 354.831 354.831 353.098 353.098 351.375 351.375 349.663 349.663 347.962 347.962 346.272 346.272 344.592 344.592 342.923 342.923 341.264 341.264 339.617 339.617 337.98 337.98 336.354 336.354 334.738 334.738 333.133 333.133 331.539 331.539 329.955 329.955 328.382 328.382 326.819 326.819 325.267 325.267 323.726 323.726 322.195 322.195 320.674 320.674 319.164 319.164 317.663 317.663 316.173 316.173 314.692 314.692 313.221 313.221 311.76 311.76 310.308 310.308 308.864 308.864 307.43 307.43 306.004 306.004 304.587 304.587 303.177 303.177 301.775 301.775 300.38 300.38 298.993 298.993 297.612 297.612 296.237 296.237 294.868 294.868 293.505 293.505 292.147 292.147 290.793 290.793 289.444 289.444 288.099 288.099 286.758 286.758 285.419 285.419 284.083 284.083 282.75 282.75 281.419 281.419 280.089 280.089 278.76 278.76 277.433 277.433 276.106 276.106 274.779 274.779 273.452 273.452 272.126 272.126 270.798 270.798 269.47 269.47 268.141 268.141 266.811 266.811 265.48 265.48 264.148 264.148 262.815 262.815 261.48 261.48 260.144 260.144 258.807 258.807 257.468 257.468 256.129 256.129 254.788 254.788 253.447 253.447 252.105 252.105 250.763 250.763 249.42 249.42 248.077 248.077 246.735 246.735 245.393 245.393 244.052 244.052 242.712 242.712 241.374 241.374 240.037 240.037 238.703 238.703 237.371 237.371 236.042 236.042 234.716 234.716 233.393 233.393 232.075 232.075 230.76 230.76 229.45 229.45 228.145 228.145 226.845 226.845 225.55 225.55 224.26 224.26 222.977 222.977 221.699 221.699 220.428 220.428 219.164 219.164 217.906 217.906 216.655 216.655 215.411 215.411 214.174 214.174 212.944 212.944 211.722 211.722 210.506 210.506 209.299 209.299 208.099 208.099 206.906 206.906 205.721 205.721 204.543 204.543 203.372 203.372 202.209 202.209 201.054 201.054 199.905 199.905 198.764 198.764 197.63 197.63 196.503 196.503 195.383 195.383 194.27 194.27 193.163 193.163 192.063 192.063 190.97 190.97 189.883 189.883 188.802 188.802 187.727 187.727 186.659 186.659 185.596 185.596 184.539 184.539 183.488 183.488 182.442 182.442 181.402 181.402 180.367 180.367 179.338 179.338 178.313 178.313 177.294 177.294 176.279 176.279 175.27 175.27 174.265 174.265 173.265 173.265 172.269 172.269 171.278 171.278 170.292 170.292 169.31 169.31 168.332 168.332 167.358 167.358 166.389 166.389 165.424 165.424 164.462 164.462 163.505 163.505 162.552 162.552 161.603 161.603 160.658 160.658 159.716 159.716 158.779 158.779 157.845 157.845 156.915 156.915 155.988 155.988 155.066 155.066 154.146 154.146 153.231 153.231 152.319 152.319 151.411 151.411 150.506 150.506 149.605 149.605 148.708 148.708 147.813 147.813 146.923 146.923 146.035 146.035 145.152 145.152 144.271 144.271 143.394 143.394 142.52 142.52 141.65 141.65 140.783 140.783 139.919 139.919 139.059 139.059 138.202 138.202 137.348 137.348 136.497 136.497 135.65 135.65 134.806 134.806 133.965 133.965 133.127 133.127 132.292 132.292 131.461 131.461 130.633 130.633 129.807 129.807 128.985 128.985 128.166 128.166 127.35 127.35 126.537 126.537 125.728 125.728 124.921 124.921 124.117 124.117 123.316 123.316 122.519 122.519 121.724 121.724 120.932 120.932 120.143 120.143 119.357 119.357 118.574 118.574 117.794 117.794 117.017 117.017 116.243 116.243 115.472 115.472 114.703 114.703 113.937 113.937 113.175 113.175 112.415 112.415 111.657 111.657 110.903 110.903 110.151 110.151 109.402 109.402 108.656 108.656 107.913 107.913 107.172 107.172 106.435 106.435 105.699 105.699 104.967 104.967 104.237 104.237 103.51 103.51 102.786 102.786 102.064 102.064 101.345 101.345 100.628 100.628 99.9142 99.9142 99.2029 99.2029 98.4941 98.4941 97.788 97.788 97.0844 97.0844 96.3834 96.3834 95.685 95.685 94.9891 94.9891 94.2957 94.2957 93.6048 93.6048 92.9164 92.9164 92.2305 92.2305 91.5471 91.5471 90.8662 90.8662 90.1877 90.1877 89.5117 89.5117 88.8381 88.8381 88.1669 88.1669 87.4982 87.4982 86.8318 86.8318 86.1679 86.1679 85.5063 85.5063 84.8471 84.8471 84.1903 84.1903 83.5358 83.5358 82.8837 82.8837 82.2339 82.2339 81.5864 81.5864 80.9413 80.9413 80.2985 80.2985 79.6579 79.6579 79.0196 79.0196 78.3836 78.3836 77.7499 77.7499 77.1184 77.1184 76.4892 76.4892 75.8622 75.8622 75.2374 75.2374 74.6149 74.6149 73.9945 73.9945 73.3764 73.3764 72.7604 72.7604 72.1466 72.1466 71.535 71.535 70.9255 70.9255 70.3182 70.3182 69.7131 69.7131 69.11 69.11 68.5091 68.5091 67.9104 67.9104 67.3137 67.3137 66.7191 66.7191 66.1266 66.1266 65.5362 65.5362 64.9478 64.9478 64.3615 64.3615 63.7773 63.7773 63.1951 63.1951 62.6149 62.6149 62.0368 62.0368 61.4607 61.4607 60.8866 60.8866 60.3145 60.3145 59.7444 59.7444 59.1763 59.1763 58.6102 58.6102 58.046 58.046 57.4838 57.4838 56.9235 56.9235 56.3652 56.3652 55.8088 55.8088 55.2544 55.2544 54.7019 54.7019 54.1512 54.1512 53.6025 53.6025 53.0557 53.0557 52.5108 52.5108 51.9677 51.9677 51.4266 51.4266 50.8873 50.8873 50.3498 50.3498 49.8142 49.8142 49.2805 49.2805 48.7486 48.7486 48.2185 48.2185 47.6902 47.6902 47.1637 47.1637 46.6391 46.6391 46.1162 46.1162 45.5952 45.5952 45.0759 45.0759 44.5584 44.5584 44.0426 44.0426 43.5287 43.5287 43.0165 43.0165 42.506 42.506 41.9972 41.9972 41.4903 41.4903 40.985 40.985 40.4814 40.4814 39.9796 39.9796 39.4795 39.4795 38.981 38.981 38.4843 38.4843 37.9892 37.9892 37.4958 37.4958 37.0041 37.0041 36.5141 36.5141 36.0257 36.0257 35.539 35.539 35.0539 35.0539 34.5704 34.5704 34.0886 34.0886 33.6084 33.6084 33.1298 33.1298 32.6529 32.6529 32.1775 32.1775 31.7038 31.7038 31.2316 31.2316 30.761 30.761 30.292 30.292 29.8246 29.8246 29.3588 29.3588 28.8945 28.8945 28.4317 28.4317 27.9705 27.9705 27.5109 27.5109 27.0528 27.0528 26.5962 26.5962 26.1412 26.1412 25.6876 25.6876 25.2356 25.2356 24.7851 24.7851 24.3361 24.3361 23.8886 23.8886 23.4426 23.4426 22.9981 22.9981 22.555 22.555 22.1134 22.1134 21.6733 21.6733 21.2346 21.2346 20.7974 20.7974 20.3617 20.3617 19.9274 19.9274 19.4945 19.4945 19.0631 19.0631 18.6331 18.6331 18.2045 18.2045 17.7773 17.7773 17.3515 17.3515 16.9272 16.9272 16.5042 16.5042 16.0827 16.0827 15.6625 15.6625 15.2437 15.2437 14.8263 14.8263 14.4103 14.4103 13.9956 13.9956 13.5823 13.5823 13.1703 13.1703 12.7597 12.7597 12.3505 12.3505 11.9426 11.9426 11.536 11.536 11.1308 11.1308 10.7269 10.7269 10.3243 10.3243 9.92301 9.92301 9.52305 9.52305 9.12439 9.12439 8.72704 8.72704 8.33099 8.33099 7.93622 7.93622 7.54274 7.54274 7.15055 7.15055 6.75963 6.75963 6.36999 6.36999 5.98161 5.98161 5.59449 5.59449 5.20864 5.20864 4.82403 4.82403 4.44068 4.44068 4.05857 4.05857 3.67769 3.67769 3.29806 3.29806 2.91965 2.91965 2.54247 2.54247 2.16651 2.16651 1.79176 1.79176 1.41823 1.41823 1.0459 1.0459 0.674777 0.674777 0.304852 0.304852 -0.0638803 -0.0638803 -0.431423 -0.431423 -0.797781 -0.797781 -1.16296 -1.16296 -1.52696 -1.52696 -1.88979 -1.88979 -2.25145 -2.25145 -2.61195 -2.61195 -2.97129 -2.97129 -3.32948 -3.32948 -3.68651 -3.68651 -4.0424 -4.0424 -4.39715 -4.39715 -4.75076 -4.75076 -5.10324 -5.10324 -5.45459 -5.45459 -5.80481 -5.80481 -6.15392 -6.15392 -6.5019 -6.5019 -6.84878 -6.84878 -7.19454 -7.19454 -7.5392 -7.5392 -7.88276 -7.88276 -8.22523 -8.22523 -8.5666 -8.5666 -8.90688 -8.90688 -9.24608 -9.24608 -9.5842 -9.5842 -9.92124 -9.92124 -10.2572 -10.2572 -10.5921 -10.5921 -10.9259 -10.9259 -11.2587 -11.2587 -11.5904 -11.5904 -11.9211 -11.9211 -12.2507 -12.2507 -12.5793 -12.5793 -12.9068 -12.9068 -13.2333 -13.2333 -13.5588 -13.5588 -13.8832 -13.8832 -14.2066 -14.2066 -14.5289 -14.5289 -14.8503 -14.8503 -15.1706 -15.1706 -15.49 -15.49 -15.8083 -15.8083 -16.1256 -16.1256 -16.4419 -16.4419 -16.7572 -16.7572 -17.0715 -17.0715 -17.3849 -17.3849 -17.6972 -17.6972 -18.0086 -18.0086 -18.3189 -18.3189 -18.6283 -18.6283 -18.9368 -18.9368 -19.2442 -19.2442 -19.5507 -19.5507 -19.8563 -19.8563 -20.1608 -20.1608 -20.4644 -20.4644 -20.7671 -20.7671 -21.0688 -21.0688 -21.3696 -21.3696 -21.6694 -21.6694 -21.9683 -21.9683 -22.2662 -22.2662 -22.5633 -22.5633 -22.8593 -22.8593 -23.1545 -23.1545 -23.4487 -23.4487 -23.7421 -23.7421 -24.0345 -24.0345 -24.326 -24.326 -24.6165 -24.6165 -24.9062 -24.9062 -25.195 -25.195 -25.4829 -25.4829 -25.7698 -25.7698 -26.0559 -26.0559 -26.3411 -26.3411 -26.6254 -26.6254 -26.9088 -26.9088 -27.1914 -27.1914 -27.473 -27.473 -27.7538 -27.7538 -28.0337 -28.0337 -28.3127 -28.3127 -28.5909 -28.5909 -28.8682 -28.8682 -29.1447 -29.1447 -29.4203 -29.4203 -29.695 -29.695 -29.9689 -29.9689 -30.2419 -30.2419 -30.5141 -30.5141 -30.7855 -30.7855 -31.056 -31.056 -31.3257 -31.3257 -31.5945 -31.5945 -31.8625 -31.8625 -32.1297 -32.1297 -32.3961 -32.3961 -32.6616 -32.6616 -32.9263 -32.9263 -33.1902 -33.1902 -33.4533 -33.4533 -33.7156 -33.7156 -33.977 -33.977 -34.2377 -34.2377 -34.4976 -34.4976 -34.7566 -34.7566 -35.0149 -35.0149 -35.2724 -35.2724 -35.529 -35.529 -35.7849 -35.7849 -36.04 -36.04 -36.2943 -36.2943 -36.5479 -36.5479 -36.8006 -36.8006 -37.0526 -37.0526 -37.3038 -37.3038 -37.5542 -37.5542 -37.8039 -37.8039 -38.0528 -38.0528 -38.3009 -38.3009 -38.5483 -38.5483 -38.7949 -38.7949 -39.0408 -39.0408 -39.2859 -39.2859 -39.5303 -39.5303 -39.7739 -39.7739 -40.0168 -40.0168 -40.2589 -40.2589 -40.5003 -40.5003 -40.7409 -40.7409 -40.9809 -40.9809 -41.22 -41.22 -41.4585 -41.4585 -41.6962 -41.6962 -41.9332 -41.9332 -42.1695 -42.1695 -42.4051 -42.4051 -42.6399 -42.6399 -42.874 -42.874 -43.1075 -43.1075 -43.3402 -43.3402 -43.5721 -43.5721 -43.8034 -43.8034 -44.034 -44.034 -44.2639 -44.2639 -44.4931 -44.4931 -44.7216 -44.7216 -44.9494 -44.9494 -45.1765 -45.1765 -45.4029 -45.4029 -45.6286 -45.6286 -45.8536 -45.8536 -46.078 -46.078 -46.3017 -46.3017 -46.5247 -46.5247 -46.747 -46.747 -46.9686 -46.9686 -47.1896 -47.1896 -47.4099 -47.4099 -47.6296 -47.6296 -47.8485 -47.8485 -48.0669 -48.0669 -48.2845 -48.2845 -48.5015 -48.5015 -48.7178 -48.7178 -48.9335 -48.9335 -49.1485 -49.1485 -49.3629 -49.3629 -49.5767 -49.5767 -49.7897 -49.7897 -50.0022 -50.0022 -50.214 -50.214 -50.4252 -50.4252 -50.6357 -50.6357 -50.8456 -50.8456 -51.0548 -51.0548 -51.2635 -51.2635 -51.4715 -51.4715 -51.6788 -51.6788 -51.8856 -51.8856 -52.0917 -52.0917 -52.2972 -52.2972 -52.5021 -52.5021 -52.7064 -52.7064 -52.91 -52.91 -53.113 -53.113 -53.3155 -53.3155 -53.5173 -53.5173 -53.7185 -53.7185 -53.9191 -53.9191 -54.1191 -54.1191 -54.3185 -54.3185 -54.5173 -54.5173 -54.7155 -54.7155 -54.9132 -54.9132 -55.1102 -55.1102 -55.3066 -55.3066 -55.5024 -55.5024 -55.6977 -55.6977 -55.8924 -55.8924 -56.0864 -56.0864 -56.2799 -56.2799 -56.4729 -56.4729 -56.6652 -56.6652 -56.857 -56.857 -57.0482 -57.0482 -57.2388 -57.2388 -57.4288 -57.4288 -57.6183 -57.6183 -57.8072 -57.8072 -57.9956 -57.9956 -58.1834 -58.1834 -58.3706 -58.3706 -58.5572 -58.5572 -58.7433 -58.7433 -58.9289 -58.9289 -59.1139 -59.1139 -59.2983 -59.2983 -59.4822 -59.4822 -59.6655 -59.6655 -59.8483 -59.8483 -60.0306 -60.0306 -60.2123 -60.2123 -60.3934 -60.3934 -60.5741 -60.5741 -60.7541 -60.7541 -60.9337 -60.9337 -61.1127 -61.1127 -61.2912 -61.2912 -61.4691 -61.4691 -61.6465 -61.6465 -61.8234 -61.8234 -61.9997 -61.9997 -62.1756 -62.1756 -62.3509 -62.3509 -62.5257 -62.5257 -62.6999 -62.6999 -62.8737 -62.8737 -63.0469 -63.0469 -63.2196 -63.2196 -63.3918 -63.3918 -63.5635 -63.5635 -63.7346 -63.7346 -63.9053 -63.9053 -64.0755 -64.0755 -64.2451 -64.2451 -64.4142 -64.4142 -64.5829 -64.5829 -64.751 -64.751 -64.9187 -64.9187 -65.0858 -65.0858 -65.2524 -65.2524 -65.4186 -65.4186 -65.5843 -65.5843 -65.7494 -65.7494 -65.9141 -65.9141 -66.0783 -66.0783 -66.242 -66.242 -66.4052 -66.4052 -66.5679 -66.5679 -66.7301 -66.7301 -66.8919 -66.8919 -67.0532 -67.0532 -67.214 -67.214 -67.3743 -67.3743 -67.5342 -67.5342 -67.6935 -67.6935 -67.8524 -67.8524 -68.0109 -68.0109 -68.1688 -68.1688 -68.3263 -68.3263 -68.4834 -68.4834 -68.6399 -68.6399 -68.796 -68.796 -68.9516 -68.9516 -69.1068 -69.1068 -69.2615 -69.2615 -69.4158 -69.4158 -69.5696 -69.5696 -69.7229 -69.7229 -69.8758 -69.8758 -70.0283 -70.0283 -70.