# vtk DataFile Version 3.0
#This file was generated by the deal.II library on 2020/9/6 at 3:35:46
ASCII
DATASET UNSTRUCTURED_GRID

POINTS 4096 double
1.5 0 0
1.5481 0 0
1.5481 0 0
1.59619 0 0
1.59619 0 0
1.64429 0 0
1.64429 0 0
1.69238 0 0
1.69238 0 0
1.74048 0 0
1.74048 0 0
1.78857 0 0
1.78857 0 0
1.83667 0 0
1.83667 0 0
1.88477 0 0
1.88477 0 0
1.93286 0 0
1.93286 0 0
1.98096 0 0
1.98096 0 0
2.02905 0 0
2.02905 0 0
2.07715 0 0
2.07715 0 0
2.12524 0 0
2.12524 0 0
2.17334 0 0
2.17334 0 0
2.22144 0 0
2.22144 0 0
2.26953 0 0
2.26953 0 0
2.31763 0 0
2.31763 0 0
2.36572 0 0
2.36572 0 0
2.41382 0 0
2.41382 0 0
2.46191 0 0
2.46191 0 0
2.51001 0 0
2.51001 0 0
2.55811 0 0
2.55811 0 0
2.6062 0 0
2.6062 0 0
2.6543 0 0
2.6543 0 0
2.70239 0 0
2.70239 0 0
2.75049 0 0
2.75049 0 0
2.79858 0 0
2.79858 0 0
2.84668 0 0
2.84668 0 0
2.89478 0 0
2.89478 0 0
2.94287 0 0
2.94287 0 0
2.99097 0 0
2.99097 0 0
3.03906 0 0
3.03906 0 0
3.08716 0 0
3.08716 0 0
3.13525 0 0
3.13525 0 0
3.18335 0 0
3.18335 0 0
3.23145 0 0
3.23145 0 0
3.27954 0 0
3.27954 0 0
3.32764 0 0
3.32764 0 0
3.37573 0 0
3.37573 0 0
3.42383 0 0
3.42383 0 0
3.47192 0 0
3.47192 0 0
3.52002 0 0
3.52002 0 0
3.56812 0 0
3.56812 0 0
3.61621 0 0
3.61621 0 0
3.66431 0 0
3.66431 0 0
3.7124 0 0
3.7124 0 0
3.7605 0 0
3.7605 0 0
3.80859 0 0
3.80859 0 0
3.85669 0 0
3.85669 0 0
3.90479 0 0
3.90479 0 0
3.95288 0 0
3.95288 0 0
4.00098 0 0
4.00098 0 0
4.04907 0 0
4.04907 0 0
4.09717 0 0
4.09717 0 0
4.14526 0 0
4.14526 0 0
4.19336 0 0
4.19336 0 0
4.24146 0 0
4.24146 0 0
4.28955 0 0
4.28955 0 0
4.33765 0 0
4.33765 0 0
4.38574 0 0
4.38574 0 0
4.43384 0 0
4.43384 0 0
4.48193 0 0
4.48193 0 0
4.53003 0 0
4.53003 0 0
4.57812 0 0
4.57812 0 0
4.62622 0 0
4.62622 0 0
4.67432 0 0
4.67432 0 0
4.72241 0 0
4.72241 0 0
4.77051 0 0
4.77051 0 0
4.8186 0 0
4.8186 0 0
4.8667 0 0
4.8667 0 0
4.91479 0 0
4.91479 0 0
4.96289 0 0
4.96289 0 0
5.01099 0 0
5.01099 0 0
5.05908 0 0
5.05908 0 0
5.10718 0 0
5.10718 0 0
5.15527 0 0
5.15527 0 0
5.20337 0 0
5.20337 0 0
5.25146 0 0
5.25146 0 0
5.29956 0 0
5.29956 0 0
5.34766 0 0
5.34766 0 0
5.39575 0 0
5.39575 0 0
5.44385 0 0
5.44385 0 0
5.49194 0 0
5.49194 0 0
5.54004 0 0
5.54004 0 0
5.58813 0 0
5.58813 0 0
5.63623 0 0
5.63623 0 0
5.68433 0 0
5.68433 0 0
5.73242 0 0
5.73242 0 0
5.78052 0 0
5.78052 0 0
5.82861 0 0
5.82861 0 0
5.87671 0 0
5.87671 0 0
5.9248 0 0
5.9248 0 0
5.9729 0 0
5.9729 0 0
6.021 0 0
6.021 0 0
6.06909 0 0
6.06909 0 0
6.11719 0 0
6.11719 0 0
6.16528 0 0
6.16528 0 0
6.21338 0 0
6.21338 0 0
6.26147 0 0
6.26147 0 0
6.30957 0 0
6.30957 0 0
6.35767 0 0
6.35767 0 0
6.40576 0 0
6.40576 0 0
6.45386 0 0
6.45386 0 0
6.50195 0 0
6.50195 0 0
6.55005 0 0
6.55005 0 0
6.59814 0 0
6.59814 0 0
6.64624 0 0
6.64624 0 0
6.69434 0 0
6.69434 0 0
6.74243 0 0
6.74243 0 0
6.79053 0 0
6.79053 0 0
6.83862 0 0
6.83862 0 0
6.88672 0 0
6.88672 0 0
6.93481 0 0
6.93481 0 0
6.98291 0 0
6.98291 0 0
7.03101 0 0
7.03101 0 0
7.0791 0 0
7.0791 0 0
7.1272 0 0
7.1272 0 0
7.17529 0 0
7.17529 0 0
7.22339 0 0
7.22339 0 0
7.27148 0 0
7.27148 0 0
7.31958 0 0
7.31958 0 0
7.36768 0 0
7.36768 0 0
7.41577 0 0
7.41577 0 0
7.46387 0 0
7.46387 0 0
7.51196 0 0
7.51196 0 0
7.56006 0 0
7.56006 0 0
7.60815 0 0
7.60815 0 0
7.65625 0 0
7.65625 0 0
7.70435 0 0
7.70435 0 0
7.75244 0 0
7.75244 0 0
7.80054 0 0
7.80054 0 0
7.84863 0 0
7.84863 0 0
7.89673 0 0
7.89673 0 0
7.94482 0 0
7.94482 0 0
7.99292 0 0
7.99292 0 0
8.04102 0 0
8.04102 0 0
8.08911 0 0
8.08911 0 0
8.13721 0 0
8.13721 0 0
8.1853 0 0
8.1853 0 0
8.2334 0 0
8.2334 0 0
8.28149 0 0
8.28149 0 0
8.32959 0 0
8.32959 0 0
8.37769 0 0
8.37769 0 0
8.42578 0 0
8.42578 0 0
8.47388 0 0
8.47388 0 0
8.52197 0 0
8.52197 0 0
8.57007 0 0
8.57007 0 0
8.61816 0 0
8.61816 0 0
8.66626 0 0
8.66626 0 0
8.71436 0 0
8.71436 0 0
8.76245 0 0
8.76245 0 0
8.81055 0 0
8.81055 0 0
8.85864 0 0
8.85864 0 0
8.90674 0 0
8.90674 0 0
8.95483 0 0
8.95483 0 0
9.00293 0 0
9.00293 0 0
9.05103 0 0
9.05103 0 0
9.09912 0 0
9.09912 0 0
9.14722 0 0
9.14722 0 0
9.19531 0 0
9.19531 0 0
9.24341 0 0
9.24341 0 0
9.2915 0 0
9.2915 0 0
9.3396 0 0
9.3396 0 0
9.3877 0 0
9.3877 0 0
9.43579 0 0
9.43579 0 0
9.48389 0 0
9.48389 0 0
9.53198 0 0
9.53198 0 0
9.58008 0 0
9.58008 0 0
9.62817 0 0
9.62817 0 0
9.67627 0 0
9.67627 0 0
9.72437 0 0
9.72437 0 0
9.77246 0 0
9.77246 0 0
9.82056 0 0
9.82056 0 0
9.86865 0 0
9.86865 0 0
9.91675 0 0
9.91675 0 0
9.96484 0 0
9.96484 0 0
10.0129 0 0
10.0129 0 0
10.061 0 0
10.061 0 0
10.1091 0 0
10.1091 0 0
10.1572 0 0
10.1572 0 0
10.2053 0 0
10.2053 0 0
10.2534 0 0
10.2534 0 0
10.3015 0 0
10.3015 0 0
10.3496 0 0
10.3496 0 0
10.3977 0 0
10.3977 0 0
10.4458 0 0
10.4458 0 0
10.4939 0 0
10.4939 0 0
10.542 0 0
10.542 0 0
10.5901 0 0
10.5901 0 0
10.6382 0 0
10.6382 0 0
10.6863 0 0
10.6863 0 0
10.7344 0 0
10.7344 0 0
10.7825 0 0
10.7825 0 0
10.8306 0 0
10.8306 0 0
10.8787 0 0
10.8787 0 0
10.9268 0 0
10.9268 0 0
10.9749 0 0
10.9749 0 0
11.0229 0 0
11.0229 0 0
11.071 0 0
11.071 0 0
11.1191 0 0
11.1191 0 0
11.1672 0 0
11.1672 0 0
11.2153 0 0
11.2153 0 0
11.2634 0 0
11.2634 0 0
11.3115 0 0
11.3115 0 0
11.3596 0 0
11.3596 0 0
11.4077 0 0
11.4077 0 0
11.4558 0 0
11.4558 0 0
11.5039 0 0
11.5039 0 0
11.552 0 0
11.552 0 0
11.6001 0 0
11.6001 0 0
11.6482 0 0
11.6482 0 0
11.6963 0 0
11.6963 0 0
11.7444 0 0
11.7444 0 0
11.7925 0 0
11.7925 0 0
11.8406 0 0
11.8406 0 0
11.8887 0 0
11.8887 0 0
11.9368 0 0
11.9368 0 0
11.9849 0 0
11.9849 0 0
12.033 0 0
12.033 0 0
12.0811 0 0
12.0811 0 0
12.1292 0 0
12.1292 0 0
12.1772 0 0
12.1772 0 0
12.2253 0 0
12.2253 0 0
12.2734 0 0
12.2734 0 0
12.3215 0 0
12.3215 0 0
12.3696 0 0
12.3696 0 0
12.4177 0 0
12.4177 0 0
12.4658 0 0
12.4658 0 0
12.5139 0 0
12.5139 0 0
12.562 0 0
12.562 0 0
12.6101 0 0
12.6101 0 0
12.6582 0 0
12.6582 0 0
12.7063 0 0
12.7063 0 0
12.7544 0 0
12.7544 0 0
12.8025 0 0
12.8025 0 0
12.8506 0 0
12.8506 0 0
12.8987 0 0
12.8987 0 0
12.9468 0 0
12.9468 0 0
12.9949 0 0
12.9949 0 0
13.043 0 0
13.043 0 0
13.0911 0 0
13.0911 0 0
13.1392 0 0
13.1392 0 0
13.1873 0 0
13.1873 0 0
13.2354 0 0
13.2354 0 0
13.2834 0 0
13.2834 0 0
13.3315 0 0
13.3315 0 0
13.3796 0 0
13.3796 0 0
13.4277 0 0
13.4277 0 0
13.4758 0 0
13.4758 0 0
13.5239 0 0
13.5239 0 0
13.572 0 0
13.572 0 0
13.6201 0 0
13.6201 0 0
13.6682 0 0
13.6682 0 0
13.7163 0 0
13.7163 0 0
13.7644 0 0
13.7644 0 0
13.8125 0 0
13.8125 0 0
13.8606 0 0
13.8606 0 0
13.9087 0 0
13.9087 0 0
13.9568 0 0
13.9568 0 0
14.0049 0 0
14.0049 0 0
14.053 0 0
14.053 0 0
14.1011 0 0
14.1011 0 0
14.1492 0 0
14.1492 0 0
14.1973 0 0
14.1973 0 0
14.2454 0 0
14.2454 0 0
14.2935 0 0
14.2935 0 0
14.3416 0 0
14.3416 0 0
14.3896 0 0
14.3896 0 0
14.4377 0 0
14.4377 0 0
14.4858 0 0
14.4858 0 0
14.5339 0 0
14.5339 0 0
14.582 0 0
14.582 0 0
14.6301 0 0
14.6301 0 0
14.6782 0 0
14.6782 0 0
14.7263 0 0
14.7263 0 0
14.7744 0 0
14.7744 0 0
14.8225 0 0
14.8225 0 0
14.8706 0 0
14.8706 0 0
14.9187 0 0
14.9187 0 0
14.9668 0 0
14.9668 0 0
15.0149 0 0
15.0149 0 0
15.063 0 0
15.063 0 0
15.1111 0 0
15.1111 0 0
15.1592 0 0
15.1592 0 0
15.2073 0 0
15.2073 0 0
15.2554 0 0
15.2554 0 0
15.3035 0 0
15.3035 0 0
15.3516 0 0
15.3516 0 0
15.3997 0 0
15.3997 0 0
15.4478 0 0
15.4478 0 0
15.4958 0 0
15.4958 0 0
15.5439 0 0
15.5439 0 0
15.592 0 0
15.592 0 0
15.6401 0 0
15.6401 0 0
15.6882 0 0
15.6882 0 0
15.7363 0 0
15.7363 0 0
15.7844 0 0
15.7844 0 0
15.8325 0 0
15.8325 0 0
15.8806 0 0
15.8806 0 0
15.9287 0 0
15.9287 0 0
15.9768 0 0
15.9768 0 0
16.0249 0 0
16.0249 0 0
16.073 0 0
16.073 0 0
16.1211 0 0
16.1211 0 0
16.1692 0 0
16.1692 0 0
16.2173 0 0
16.2173 0 0
16.2654 0 0
16.2654 0 0
16.3135 0 0
16.3135 0 0
16.3616 0 0
16.3616 0 0
16.4097 0 0
16.4097 0 0
16.4578 0 0
16.4578 0 0
16.5059 0 0
16.5059 0 0
16.554 0 0
16.554 0 0
16.6021 0 0
16.6021 0 0
16.6501 0 0
16.6501 0 0
16.6982 0 0
16.6982 0 0
16.7463 0 0
16.7463 0 0
16.7944 0 0
16.7944 0 0
16.8425 0 0
16.8425 0 0
16.8906 0 0
16.8906 0 0
16.9387 0 0
16.9387 0 0
16.9868 0 0
16.9868 0 0
17.0349 0 0
17.0349 0 0
17.083 0 0
17.083 0 0
17.1311 0 0
17.1311 0 0
17.1792 0 0
17.1792 0 0
17.2273 0 0
17.2273 0 0
17.2754 0 0
17.2754 0 0
17.3235 0 0
17.3235 0 0
17.3716 0 0
17.3716 0 0
17.4197 0 0
17.4197 0 0
17.4678 0 0
17.4678 0 0
17.5159 0 0
17.5159 0 0
17.564 0 0
17.564 0 0
17.6121 0 0
17.6121 0 0
17.6602 0 0
17.6602 0 0
17.7083 0 0
17.7083 0 0
17.7563 0 0
17.7563 0 0
17.8044 0 0
17.8044 0 0
17.8525 0 0
17.8525 0 0
17.9006 0 0
17.9006 0 0
17.9487 0 0
17.9487 0 0
17.9968 0 0
17.9968 0 0
18.0449 0 0
18.0449 0 0
18.093 0 0
18.093 0 0
18.1411 0 0
18.1411 0 0
18.1892 0 0
18.1892 0 0
18.2373 0 0
18.2373 0 0
18.2854 0 0
18.2854 0 0
18.3335 0 0
18.3335 0 0
18.3816 0 0
18.3816 0 0
18.4297 0 0
18.4297 0 0
18.4778 0 0
18.4778 0 0
18.5259 0 0
18.5259 0 0
18.574 0 0
18.574 0 0
18.6221 0 0
18.6221 0 0
18.6702 0 0
18.6702 0 0
18.7183 0 0
18.7183 0 0
18.7664 0 0
18.7664 0 0
18.8145 0 0
18.8145 0 0
18.8625 0 0
18.8625 0 0
18.9106 0 0
18.9106 0 0
18.9587 0 0
18.9587 0 0
19.0068 0 0
19.0068 0 0
19.0549 0 0
19.0549 0 0
19.103 0 0
19.103 0 0
19.1511 0 0
19.1511 0 0
19.1992 0 0
19.1992 0 0
19.2473 0 0
19.2473 0 0
19.2954 0 0
19.2954 0 0
19.3435 0 0
19.3435 0 0
19.3916 0 0
19.3916 0 0
19.4397 0 0
19.4397 0 0
19.4878 0 0
19.4878 0 0
19.5359 0 0
19.5359 0 0
19.584 0 0
19.584 0 0
19.6321 0 0
19.6321 0 0
19.6802 0 0
19.6802 0 0
19.7283 0 0
19.7283 0 0
19.7764 0 0
19.7764 0 0
19.8245 0 0
19.8245 0 0
19.8726 0 0
19.8726 0 0
19.9207 0 0
19.9207 0 0
19.9688 0 0
19.9688 0 0
20.0168 0 0
20.0168 0 0
20.0649 0 0
20.0649 0 0
20.113 0 0
20.113 0 0
20.1611 0 0
20.1611 0 0
20.2092 0 0
20.2092 0 0
20.2573 0 0
20.2573 0 0
20.3054 0 0
20.3054 0 0
20.3535 0 0
20.3535 0 0
20.4016 0 0
20.4016 0 0
20.4497 0 0
20.4497 0 0
20.4978 0 0
20.4978 0 0
20.5459 0 0
20.5459 0 0
20.594 0 0
20.594 0 0
20.6421 0 0
20.6421 0 0
20.6902 0 0
20.6902 0 0
20.7383 0 0
20.7383 0 0
20.7864 0 0
20.7864 0 0
20.8345 0 0
20.8345 0 0
20.8826 0 0
20.8826 0 0
20.9307 0 0
20.9307 0 0
20.9788 0 0
20.9788 0 0
21.0269 0 0
21.0269 0 0
21.075 0 0
21.075 0 0
21.123 0 0
21.123 0 0
21.1711 0 0
21.1711 0 0
21.2192 0 0
21.2192 0 0
21.2673 0 0
21.2673 0 0
21.3154 0 0
21.3154 0 0
21.3635 0 0
21.3635 0 0
21.4116 0 0
[...]
POINT_DATA 4096
SCALARS solution_0 double 1
LOOKUP_TABLE default
14.9164 14.6126 14.6126 14.3298 14.3298 14.0657 14.0657 13.8185 13.8185 13.5866 13.5866 13.3686 13.3686 13.1631 13.1631 12.9691 12.9691 12.7856 12.7856 12.6117 12.6117 12.4466 12.4466 12.2897 12.2897 12.1403 12.1403 11.9979 11.9979 11.8619 11.8619 11.732 11.732 11.6078 11.6078 11.489 11.489 11.3751 11.3751 11.2661 11.2661 11.1615 11.1615 11.0613 11.0613 10.9653 10.9653 10.8733 10.8733 10.7852 10.7852 10.701 10.701 10.6205 10.6205 10.5436 10.5436 10.4705 10.4705 10.4011 10.4011 10.3354 10.3354 10.2734 10.2734 10.2153 10.2153 10.1612 10.1612 10.1112 10.1112 10.0654 10.0654 10.0241 10.0241 9.98742 9.98742 9.95569 9.95569 9.92915 9.92915 9.90809 9.90809 9.89279 9.89279 9.88348 9.88348 9.88026 9.88026 9.88301 9.88301 9.8912 9.8912 9.90365 9.90365 9.91823 9.91823 9.93149 9.93149 9.9383 9.9383 9.93159 9.93159 9.90227 9.90227 9.83953 9.83953 9.73167 9.73167 9.56743 9.56743 9.33787 9.33787 9.03846 9.03846 8.67099 8.67099 8.24492 8.24492 7.77737 7.77737 7.2917 7.2917 6.81463 6.81463 6.37231 6.37231 5.98627 5.98627 5.6701 5.6701 5.4278 5.4278 5.25422 5.25422 5.13727 5.13727 5.06138 5.06138 5.01098 5.01098 4.97332 4.97332 4.93988 4.93988 4.90637 4.90637 4.87174 4.87174 4.83675 4.83675 4.80273 4.80273 4.77079 4.77079 4.74156 4.74156 4.71524 4.71524 4.69188 4.69188 4.67153 4.67153 4.6543 4.6543 4.6404 4.6404 4.63007 4.63007 4.62357 4.62357 4.62113 4.62113 4.62301 4.62301 4.62943 4.62943 4.64066 4.64066 4.65695 4.65695 4.67857 4.67857 4.70577 4.70577 4.73882 4.73882 4.77797 4.77797 4.82346 4.82346 4.87554 4.87554 4.93444 4.93444 5.00036 5.00036 5.07351 5.07351 5.15404 5.15404 5.24212 5.24212 5.33786 5.33786 5.44135 5.44135 5.55263 5.55263 5.67172 5.67172 5.79859 5.79859 5.93316 5.93316 6.07531 6.07531 6.22486 6.22486 6.38157 6.38157 6.54517 6.54517 6.71529 6.71529 6.89155 6.89155 7.07347 7.07347 7.26053 7.26053 7.45214 7.45214 7.64766 7.64766 7.84639 7.84639 8.04756 8.04756 8.25039 8.25039 8.454 8.454 8.6575 8.6575 8.85996 8.85996 9.0604 9.0604 9.25785 9.25785 9.45127 9.45127 9.63965 9.63965 9.82196 9.82196 9.99718 9.99718 10.1643 10.1643 10.3223 10.3223 10.4703 10.4703 10.6073 10.6073 10.7325 10.7325 10.845 10.845 10.9442 10.9442 11.0292 11.0292 11.0996 11.0996 11.1547 11.1547 11.1942 11.1942 11.2177 11.2177 11.225 11.225 11.2159 11.2159 11.1903 11.1903 11.1485 11.1485 11.0904 11.0904 11.0163 11.0163 10.9267 10.9267 10.8219 10.8219 10.7025 10.7025 10.5691 10.5691 10.4224 10.4224 10.2631 10.2631 10.0921 10.0921 9.91036 9.91036 9.71867 9.71867 9.51806 9.51806 9.30952 9.30952 9.09407 9.09407 8.87275 8.87275 8.64658 8.64658 8.4166 8.4166 8.18383 8.18383 7.94925 7.94925 7.71383 7.71383 7.4785 7.4785 7.24415 7.24415 7.01163 7.01163 6.78171 6.78171 6.55515 6.55515 6.33261 6.33261 6.11471 6.11471 5.90201 5.90201 5.695 5.695 5.4941 5.4941 5.29968 5.29968 5.11204 5.11204 4.93143 4.93143 4.75802 4.75802 4.59194 4.59194 4.43328 4.43328 4.28204 4.28204 4.13822 4.13822 4.00174 4.00174 3.87251 3.87251 3.75039 3.75039 3.63521 3.63521 3.52677 3.52677 3.42485 3.42485 3.32923 3.32923 3.23964 3.23964 3.15583 3.15583 3.07751 3.07751 3.00441 3.00441 2.93625 2.93625 2.87274 2.87274 2.81361 2.81361 2.75857 2.75857 2.70736 2.70736 2.65971 2.65971 2.61536 2.61536 2.57407 2.57407 2.53561 2.53561 2.49975 2.49975 2.46627 2.46627 2.43497 2.43497 2.40568 2.40568 2.3782 2.3782 2.35238 2.35238 2.32806 2.32806 2.3051 2.3051 2.28337 2.28337 2.26275 2.26275 2.24312 2.24312 2.2244 2.2244 2.20649 2.20649 2.1893 2.1893 2.17277 2.17277 2.15682 2.15682 2.14139 2.14139 2.12643 2.12643 2.11189 2.11189 2.09773 2.09773 2.08392 2.08392 2.0704 2.0704 2.05717 2.05717 2.04418 2.04418 2.03142 2.03142 2.01886 2.01886 2.0065 2.0065 1.99431 1.99431 1.98227 1.98227 1.97039 1.97039 1.95864 1.95864 1.94702 1.94702 1.93552 1.93552 1.92414 1.92414 1.91286 1.91286 1.90169 1.90169 1.89061 1.89061 1.87963 1.87963 1.86874 1.86874 1.85794 1.85794 1.84722 1.84722 1.83659 1.83659 1.82604 1.82604 1.81557 1.81557 1.80518 1.80518 1.79487 1.79487 1.78463 1.78463 1.77446 1.77446 1.76437 1.76437 1.75435 1.75435 1.7444 1.7444 1.73453 1.73453 1.72472 1.72472 1.71498 1.71498 1.70531 1.70531 1.69571 1.69571 1.68617 1.68617 1.6767 1.6767 1.6673 1.6673 1.65796 1.65796 1.64869 1.64869 1.63948 1.63948 1.63033 1.63033 1.62124 1.62124 1.61222 1.61222 1.60326 1.60326 1.59436 1.59436 1.58551 1.58551 1.57673 1.57673 1.56801 1.56801 1.55935 1.55935 1.55074 1.55074 1.54219 1.54219 1.5337 1.5337 1.52527 1.52527 1.51689 1.51689 1.50857 1.50857 1.5003 1.5003 1.49209 1.49209 1.48393 1.48393 1.47583 1.47583 1.46778 1.46778 1.45978 1.45978 1.45183 1.45183 1.44394 1.44394 1.43609 1.43609 1.4283 1.4283 1.42056 1.42056 1.41287 1.41287 1.40523 1.40523 1.39764 1.39764 1.39009 1.39009 1.3826 1.3826 1.37515 1.37515 1.36775 1.36775 1.3604 1.3604 1.3531 1.3531 1.34584 1.34584 1.33862 1.33862 1.33146 1.33146 1.32434 1.32434 1.31726 1.31726 1.31023 1.31023 1.30324 1.30324 1.29629 1.29629 1.28939 1.28939 1.28254 1.28254 1.27572 1.27572 1.26895 1.26895 1.26222 1.26222 1.25553 1.25553 1.24888 1.24888 1.24227 1.24227 1.23571 1.23571 1.22918 1.22918 1.2227 1.2227 1.21625 1.21625 1.20985 1.20985 1.20348 1.20348 1.19715 1.19715 1.19086 1.19086 1.18461 1.18461 1.17839 1.17839 1.17222 1.17222 1.16608 1.16608 1.15998 1.15998 1.15391 1.15391 1.14788 1.14788 1.14189 1.14189 1.13593 1.13593 1.13001 1.13001 1.12412 1.12412 1.11827 1.11827 1.11245 1.11245 1.10667 1.10667 1.10092 1.10092 1.09521 1.09521 1.08953 1.08953 1.08388 1.08388 1.07826 1.07826 1.07268 1.07268 1.06713 1.06713 1.06162 1.06162 1.05613 1.05613 1.05068 1.05068 1.04526 1.04526 1.03987 1.03987 1.03451 1.03451 1.02918 1.02918 1.02388 1.02388 1.01862 1.01862 1.01338 1.01338 1.00817 1.00817 1.003 1.003 0.997849 0.997849 0.992731 0.992731 0.987642 0.987642 0.982582 0.982582 0.977551 0.977551 0.972548 0.972548 0.967573 0.967573 0.962627 0.962627 0.957708 0.957708 0.952816 0.952816 0.947953 0.947953 0.943116 0.943116 0.938307 0.938307 0.933524 0.933524 0.928768 0.928768 0.924038 0.924038 0.919334 0.919334 0.914657 0.914657 0.910005 0.910005 0.905379 0.905379 0.900779 0.900779 0.896204 0.896204 0.891654 0.891654 0.887129 0.887129 0.882628 0.882628 0.878153 0.878153 0.873701 0.873701 0.869274 0.869274 0.864871 0.864871 0.860492 0.860492 0.856136 0.856136 0.851805 0.851805 0.847496 0.847496 0.843211 0.843211 0.838949 0.838949 0.834709 0.834709 0.830493 0.830493 0.826299 0.826299 0.822127 0.822127 0.817978 0.817978 0.813851 0.813851 0.809745 0.809745 0.805662 0.805662 0.8016 0.8016 0.79756 0.79756 0.793541 0.793541 0.789543 0.789543 0.785566 0.785566 0.781611 0.781611 0.777676 0.777676 0.773761 0.773761 0.769867 0.769867 0.765994 0.765994 0.762141 0.762141 0.758307 0.758307 0.754494 0.754494 0.750701 0.750701 0.746927 0.746927 0.743173 0.743173 0.739438 0.739438 0.735722 0.735722 0.732026 0.732026 0.728348 0.728348 0.72469 0.72469 0.72105 0.72105 0.717429 0.717429 0.713826 0.713826 0.710242 0.710242 0.706676 0.706676 0.703129 0.703129 0.699599 0.699599 0.696087 0.696087 0.692593 0.692593 0.689117 0.689117 0.685658 0.685658 0.682217 0.682217 0.678793 0.678793 0.675386 0.675386 0.671996 0.671996 0.668624 0.668624 0.665268 0.665268 0.661929 0.661929 0.658607 0.658607 0.655301 0.655301 0.652012 0.652012 0.648739 0.648739 0.645482 0.645482 0.642242 0.642242 0.639017 0.639017 0.635808 0.635808 0.632616 0.632616 0.629439 0.629439 0.626277 0.626277 0.623132 0.623132 0.620001 0.620001 0.616886 0.616886 0.613786 0.613786 0.610702 0.610702 0.607632 0.607632 0.604577 0.604577 0.601537 0.601537 0.598512 0.598512 0.595502 0.595502 0.592506 0.592506 0.589525 0.589525 0.586558 0.586558 0.583605 0.583605 0.580667 0.580667 0.577743 0.577743 0.574833 0.574833 0.571936 0.571936 0.569054 0.569054 0.566185 0.566185 0.563331 0.563331 0.560489 0.560489 0.557662 0.557662 0.554847 0.554847 0.552047 0.552047 0.549259 0.549259 0.546485 0.546485 0.543723 0.543723 0.540975 0.540975 0.53824 0.53824 0.535518 0.535518 0.532808 0.532808 0.530111 0.530111 0.527427 0.527427 0.524755 0.524755 0.522096 0.522096 0.51945 0.51945 0.516816 0.516816 0.514194 0.514194 0.511584 0.511584 0.508986 0.508986 0.506401 0.506401 0.503827 0.503827 0.501265 0.501265 0.498716 0.498716 0.496178 0.496178 0.493651 0.493651 0.491137 0.491137 0.488633 0.488633 0.486142 0.486142 0.483662 0.483662 0.481193 0.481193 0.478735 0.478735 0.476289 0.476289 0.473854 0.473854 0.47143 0.47143 0.469017 0.469017 0.466615 0.466615 0.464224 0.464224 0.461844 0.461844 0.459475 0.459475 0.457116 0.457116 0.454768 0.454768 0.452431 0.452431 0.450104 0.450104 0.447787 0.447787 0.445482 0.445482 0.443186 0.443186 0.440901 0.440901 0.438626 0.438626 0.436361 0.436361 0.434106 0.434106 0.431861 0.431861 0.429627 0.429627 0.427402 0.427402 0.425187 0.425187 0.422982 0.422982 0.420787 0.420787 0.418602 0.418602 0.416426 0.416426 0.41426 0.41426 0.412103 0.412103 0.409956 0.409956 0.407819 0.407819 0.40569 0.40569 0.403572 0.403572 0.401462 0.401462 0.399362 0.399362 0.397271 0.397271 0.395189 0.395189 0.393116 0.393116 0.391052 0.391052 0.388997 0.388997 0.386952 0.386952 0.384915 0.384915 0.382886 0.382886 0.380867 0.380867 0.378857 0.378857 0.376855 0.376855 0.374862 0.374862 0.372877 0.372877 0.370901 0.370901 0.368934 0.368934 0.366975 0.366975 0.365024 0.365024 0.363082 0.363082 0.361148 0.361148 0.359222 0.359222 0.357305 0.357305 0.355396 0.355396 0.353495 0.353495 0.351602 0.351602 0.349717 0.349717 0.347841 0.347841 0.345972 0.345972 0.344111 0.344111 0.342258 0.342258 0.340413 0.340413 0.338575 0.338575 0.336746 0.336746 0.334924 0.334924 0.33311 0.33311 0.331303 0.331303 0.329505 0.329505 0.327713 0.327713 0.325929 0.325929 0.324153 0.324153 0.322384 0.322384 0.320623 0.320623 0.318869 0.318869 0.317122 0.317122 0.315383 0.315383 0.31365 0.31365 0.311925 0.311925 0.310208 0.310208 0.308497 0.308497 0.306793 0.306793 0.305097 0.305097 0.303407 0.303407 0.301725 0.301725 0.300049 0.300049 0.298381 0.298381 0.296719 0.296719 0.295064 0.295064 0.293416 0.293416 0.291775 0.291775 0.29014 0.29014 0.288512 0.288512 0.286891 0.286891 0.285277 0.285277 0.283669 0.283669 0.282067 0.282067 0.280472 0.280472 0.278884 0.278884 0.277302 0.277302 0.275727 0.275727 0.274158 0.274158 0.272595 0.272595 0.271039 0.271039 0.269489 0.269489 0.267945 0.267945 0.266408 0.266408 0.264877 0.264877 0.263351 0.263351 0.261833 0.261833 0.26032 0.26032 0.258813 0.258813 0.257312 0.257312 0.255818 0.255818 0.254329 0.254329 0.252847 0.252847 0.25137 0.25137 0.249899 0.249899 0.248434 0.248434 0.246975 0.246975 0.245522 0.245522 0.244074 0.244074 0.242633 0.242633 0.241197 0.241197 0.239766 0.239766 0.238342 0.238342 0.236923 0.236923 0.23551 0.23551 0.234102 0.234102 0.2327 0.2327 0.231303 0.231303 0.229912 0.229912 0.228527 0.228527 0.227146 0.227146 0.225772 0.225772 0.224402 0.224402 0.223039 0.223039 0.22168 0.22168 0.220327 0.220327 0.218979 0.218979 0.217636 0.217636 0.216299 0.216299 0.214967 0.214967 0.21364 0.21364 0.212318 0.212318 0.211001 0.211001 0.20969 0.20969 0.208383 0.208383 0.207082 0.207082 0.205786 0.205786 0.204494 0.204494 0.203208 0.203208 0.201927 0.201927 0.200651 0.200651 0.199379 0.199379 0.198113 0.198113 0.196851 0.196851 0.195594 0.195594 0.194342 0.194342 0.193095 0.193095 0.191853 0.191853 0.190616 0.190616 0.189383 0.189383 0.188155 0.188155 0.186931 0.186931 0.185713 0.185713 0.184499 0.184499 0.183289 0.183289 0.182085 0.182085 0.180885 0.180885 0.179689 0.179689 0.178498 0.178498 0.177311 0.177311 0.176129 0.176129 0.174952 0.174952 0.173779 0.173779 0.17261 0.17261 0.171446 0.171446 0.170286 0.170286 0.169131 0.169131 0.16798 0.16798 0.166833 0.166833 0.165691 0.165691 0.164553 0.164553 0.163419 0.163419 0.16229 0.16229 0.161165 0.161165 0.160044 0.160044 0.158927 0.158927 0.157814 0.157814 0.156706 0.156706 0.155601 0.155601 0.154501 0.154501 0.153405 0.153405 0.152313 0.152313 0.151225 0.151225 0.150142 0.150142 0.149062 0.149062 0.147986 0.147986 0.146914 0.146914 0.145846 0.145846 0.144782 0.144782 0.143723 0.143723 0.142667 0.142667 0.141615 0.141615 0.140566 0.140566 0.139522 0.139522 0.138482 0.138482 0.137445 0.137445 0.136412 0.136412 0.135383 0.135383 0.134358 0.134358 0.133337 0.133337 0.132319 0.132319 0.131305 0.131305 0.130295 0.130295 0.129289 0.129289 0.128286 0.128286 0.127287 0.127287 0.126291 0.126291 0.125299 0.125299 0.124311 0.124311 0.123327 0.123327 0.122346 0.122346 0.121368 0.121368 0.120394 0.120394 0.119424 0.119424 0.118457 0.118457 0.117494 0.117494 0.116534 0.116534 0.115578 0.115578 0.114625 0.114625 0.113676 0.113676 0.11273 0.11273 0.111787 0.111787 0.110848 0.110848 0.109912 0.109912 0.10898 0.10898 0.108051 0.108051 0.107125 0.107125 0.106203 0.106203 0.105284 0.105284 0.104368 0.104368 0.103456 0.103456 0.102547 0.102547 0.101641 0.101641 0.100738 0.100738 0.0998389 0.0998389 0.0989428 0.0989428 0.0980498 0.0980498 0.0971601 0.0971601 0.0962735 0.0962735 0.0953901 0.0953901 0.0945098 0.0945098 0.0936327 0.0936327 0.0927587 0.0927587 0.0918878 0.0918878 0.09102 0.09102 0.0901553 0.0901553 0.0892937 0.0892937 0.0884351 0.0884351 0.0875796 0.0875796 0.0867271 0.0867271 0.0858776 0.0858776 0.0850311 0.0850311 0.0841876 0.0841876 0.0833471 0.0833471 0.0825096 0.0825096 0.081675 0.081675 0.0808434 0.0808434 0.0800147 0.0800147 0.0791889 0.0791889 0.078366 0.078366 0.0775461 0.0775461 0.076729 0.076729 0.0759147 0.0759147 0.0751033 0.0751033 0.0742948 0.0742948 0.0734891 0.0734891 0.0726863 0.0726863 0.0718862 0.0718862 0.0710889 0.0710889 0.0702945 0.0702945 0.0695028 0.0695028 0.0687138 0.0687138 0.0679277 0.0679277 0.0671442 0.0671442 0.0663635 0.0663635 0.0655855 0.0655855 0.0648102 0.0648102 0.0640376 0.0640376 0.0632677 0.0632677 0.0625005 0.0625005 0.0617359 0.0617359 0.060974 0.060974 0.0602147 0.0602147 0.0594581 0.0594581 0.058704 0.058704 0.0579526 0.0579526 0.0572038 0.0572038 0.0564576 0.0564576 0.0557139 0.0557139 0.0549728 0.0549728 0.0542343 0.0542343 0.0534983 0.0534983 0.0527648 0.0527648 0.0520339 0.0520339 0.0513055 0.0513055 0.0505795 0.0505795 0.0498561 0.0498561 0.0491352 0.0491352 0.0484167 0.0484167 0.0477007 0.0477007 0.0469871 0.0469871 0.046276 0.046276 0.0455674 0.0455674 0.0448611 0.0448611 0.0441573 0.0441573 0.0434558 0.0434558 0.0427568 0.0427568 0.0420602 0.0420602 0.0413659 0.0413659 0.040674 0.040674 0.0399844 0.0399844 0.0392972 0.0392972 0.0386123 0.0386123 0.0379298 0.0379298 0.0372495 0.0372495 0.0365716 0.0365716 0.035896 0.035896 0.0352227 0.0352227 0.0345516 0.0345516 0.0338829 0.0338829 0.0332164 0.0332164 0.0325521 0.0325521 0.0318901 0.0318901 0.0312303 0.0312303 0.0305728 0.0305728 0.0299175 0.0299175 0.0292644 0.0292644 0.0286135 0.0286135 0.0279647 0.0279647 0.0273182 0.0273182 0.0266738 0.0266738 0.0260317 0.0260317 0.0253916 0.0253916 0.0247537 0.0247537 0.024118 0.024118 0.0234844 0.0234844 0.0228529 0.0228529 0.0222236 0.0222236 0.0215963 0.0215963 0.0209711 0.0209711 0.0203481 0.0203481 0.0197271 0.0197271 0.0191082 0.0191082 0.0184914 0.0184914 0.0178766 0.0178766 0.0172639 0.0172639 0.0166532 0.0166532 0.0160445 0.0160445 0.0154379 0.0154379 0.0148333 0.0148333 0.0142307 0.0142307 0.0136302 0.0136302 0.0130316 0.0130316 0.012435 0.012435 0.0118404 0.0118404 0.0112477 0.0112477 0.010657 0.010657 0.0100683 0.0100683 0.00948155 0.00948155 0.00889673 0.00889673 0.00831384 0.00831384 0.00773288 0.00773288 0.00715384 0.00715384 0.00657672 0.00657672 0.0060015 0.0060015 0.00542818 0.00542818 0.00485675 0.00485675 0.00428721 0.00428721 0.00371954 0.00371954 0.00315375 0.00315375 0.00258982 0.00258982 0.00202774 0.00202774 0.00146751 0.00146751 0.000909125 0.000909125 0.000352574 0.000352574 -0.000202149 -0.000202149 -0.000755051 -0.000755051 -0.00130614 -0.00130614 -0.00185542 -0.00185542 -0.0024029 -0.0024029 -0.00294859 -0.00294859 -0.00349249 -0.00349249 -0.00403461 -0.00403461 -0.00457495 -0.00457495 -0.00511353 -0.00511353 -0.00565035 -0.00565035 -0.00618542 -0.00618542 -0.00671873 -0.00671873 -0.00725031 -0.00725031 -0.00778016 -0.00778016 -0.00830827 -0.00830827 -0.00883467 -0.00883467 -0.00935935 -0.00935935 -0.00988233 -0.00988233 -0.0104036 -0.0104036 -0.0109232 -0.0109232 -0.0114411 -0.0114411 -0.0119573 -0.0119573 -0.0124718 -0.0124718 -0.0129847 -0.0129847 -0.0134959 -0.0134959 -0.0140054 -0.0140054 -0.0145133 -0.0145133 -0.0150195 -0.0150195 -0.0155241 -0.0155241 -0.0160271 -0.0160271 -0.0165284 -0.0165284 -0.0170281 -0.0170281 -0.0175262 -0.0175262 -0.0180227 -0.0180227 -0.0185176 -0.0185176 -0.0190109 -0.0190109 -0.0195026 -0.0195026 -0.0199927 -0.0199927 -0.0204813 -0.0204813 -0.0209682 -0.0209682 -0.0214536 -0.0214536 -0.0219374 -0.0219374 -0.0224197 -0.0224197 -0.0229004 -0.0229004 -0.0233796 -0.0233796 -0.0238573 -0.0238573 -0.0243334 -0.0243334 -0.0248079 -0.0248079 -0.025281 -0.025281 -0.0257525 -0.0257525 -0.0262225 -0.0262225 -0.026691 -0.026691 -0.0271581 -0.0271581 -0.0276236 -0.0276236 -0.0280876 -0.0280876 -0.0285501 -0.0285501 -0.0290112 -0.0290112 -0.0294708 -0.0294708 -0.0299289 -0.0299289 -0.0303856 -0.0303856 -0.0308408 -0.0308408 -0.0312945 -0.0312945 -0.0317468 -0.0317468 -0.0321977 -0.0321977 -0.0326471 -0.0326471 -0.0330951 -0.0330951 -0.0335416 -0.0335416 -0.0339868 -0.0339868 -0.0344305 -0.0344305 -0.0348728 -0.0348728 -0.0353137 -0.0353137 -0.0357532 -0.0357532 -0.0361913 -0.0361913 -0.036628 -0.036628 -0.0370633 -0.0370633 -0.0374973 -0.0374973 -0.0379298 -0.0379298 -0.038361 -0.038361 -0.0387909 -0.0387909 -0.0392193 -0.0392193 -0.0396464 -0.0396464 -0.0400722 -0.0400722 -0.0404966 -0.0404966 -0.0409197 -0.0409197 -0.0413414 -0.0413414 -0.0417618 -0.0417618 -0.0421809 -0.0421809 -0.0425986 -0.0425986 -0.043015 -0.043015 -0.0434301 -0.0434301 -0.0438439 -0.0438439 -0.0442564 -0.0442564 -0.0446676 -0.0446676 -0.0450775 -0.0450775 -0.0454861 -0.0454861 -0.0458935 -0.0458935 -0.0462995 -0.0462995 -0.0467043 -0.0467043 -0.0471077 -0.0471077 -0.04751 -0.04751 -0.0479109 -0.0479109 -0.0483106 -0.0483106 -0.048709 -0.048709 -0.0491062 -0.0491062 -0.0495022 -0.0495022 -0.0498969 -0.0498969 -0.0502903 -0.0502903 -0.0506826 -0.0506826 -0.0510736 -0.0510736 -0.0514633 -0.0514633 -0.0518519 -0.0518519 -0.0522392 -0.0522392 -0.0526253 -0.0526253 -0.0530102 -0.0530102 -0.0533939 -0.0533939 -0.0537764 -0.0537764 -0.0541578 -0.0541578 -0.0545379 -0.0545379 -0.0549168 -0.0549168 -0.0552946 -0.0552946 -0.0556711 -0.0556711 -0.0560465 -0.0560465 -0.0564207 -0.0564207 -0.0567938 -0.0567938 -0.0571657 -0.0571657 -0.0575364 -0.0575364 -0.057906 -0.057906 -0.0582744 -0.0582744 -0.0586417 -0.0586417 -0.0590079 -0.0590079 -0.0593728 -0.0593728 -0.0597367 -0.0597367 -0.0600994 -0.0600994 -0.060461 -0.060461 -0.0608215 -0.0608215 -0.0611809 -0.0611809 -0.0615391 -0.0615391 -0.0618963 -0.0618963 -0.0622523 -0.0622523 -0.0626072 -0.0626072 -0.062961 -0.062961 -0.0633137 -0.0633137 -0.0636654 -0.0636654 -0.0640159 -0.0640159 -0.0643653 -0.0643653 -0.0647137 -0.0647137 -0.065061 -0.065061 -0.0654072 -0.0654072 -0.0657523 -0.0657523 -0.0660964 -0.0660964 -0.0664394 -0.0664394 -0.0667814 -0.0667814 -0.0671223 -0.0671223 -0.0674621 -0.0674621 -0.0678009 -0.0678009 -0.0681386 -0.0681386 -0.0684753 -0.0684753 -0.068811 -0.068811 -0.0691456 -0.0691456 -0.0694792 -0.0694792 -0.0698118 -0.0698118 -0.0701433 -0.0701433 -0.0704738 -0.0704738 -0.0708033 -0.0708033 -0.0711318 -0.0711318 -0.0714593 -0.0714593 -0.0717857 -0.0717857 -0.0721112 -0.0721112 -0.0724356 -0.0724356 -0.0727591 -0.0727591 -0.0730816 -0.0730816 -0.073403 -0.073403 -0.0737235 -0.0737235 -0.074043 -0.074043 -0.0743615 -0.0743615 -0.0746791 -0.0746791 -0.0749956 -0.0749956 -0.0753112 -0.0753112 -0.0756258 -0.0756258 -0.0759395 -0.0759395 -0.0762522 -0.0762522 -0.0765639 -0.0765639 -0.0768747 -0.0768747 -0.0771845 -0.0771845 -0.0774934 -0.0774934 -0.0778013 -0.0778013 -0.0781083 -0.0781083 -0.0784143 -0.0784143 -0.0787194 -0.0787194 -0.0790236 -0.0790236 -0.0793269 -0.0793269 -0.0796292 -0.0796292 -0.0799306 -0.0799306 -0.080231 -0.080231 -0.0805306 -0.0805306 -0.0808292 -0.0808292 -0.0811269 -0.0811269 -0.0814237 -0.0814237 -0.0817196 -0.08171