# vtk DataFile Version 3.0
#This file was generated by the deal.II library on 2020/9/6 at 3:43:47
ASCII
DATASET UNSTRUCTURED_GRID

POINTS 4096 double
1.5 0 0
1.5481 0 0
1.5481 0 0
1.59619 0 0
1.59619 0 0
1.64429 0 0
1.64429 0 0
1.69238 0 0
1.69238 0 0
1.74048 0 0
1.74048 0 0
1.78857 0 0
1.78857 0 0
1.83667 0 0
1.83667 0 0
1.88477 0 0
1.88477 0 0
1.93286 0 0
1.93286 0 0
1.98096 0 0
1.98096 0 0
2.02905 0 0
2.02905 0 0
2.07715 0 0
2.07715 0 0
2.12524 0 0
2.12524 0 0
2.17334 0 0
2.17334 0 0
2.22144 0 0
2.22144 0 0
2.26953 0 0
2.26953 0 0
2.31763 0 0
2.31763 0 0
2.36572 0 0
2.36572 0 0
2.41382 0 0
2.41382 0 0
2.46191 0 0
2.46191 0 0
2.51001 0 0
2.51001 0 0
2.55811 0 0
2.55811 0 0
2.6062 0 0
2.6062 0 0
2.6543 0 0
2.6543 0 0
2.70239 0 0
2.70239 0 0
2.75049 0 0
2.75049 0 0
2.79858 0 0
2.79858 0 0
2.84668 0 0
2.84668 0 0
2.89478 0 0
2.89478 0 0
2.94287 0 0
2.94287 0 0
2.99097 0 0
2.99097 0 0
3.03906 0 0
3.03906 0 0
3.08716 0 0
3.08716 0 0
3.13525 0 0
3.13525 0 0
3.18335 0 0
3.18335 0 0
3.23145 0 0
3.23145 0 0
3.27954 0 0
3.27954 0 0
3.32764 0 0
3.32764 0 0
3.37573 0 0
3.37573 0 0
3.42383 0 0
3.42383 0 0
3.47192 0 0
3.47192 0 0
3.52002 0 0
3.52002 0 0
3.56812 0 0
3.56812 0 0
3.61621 0 0
3.61621 0 0
3.66431 0 0
3.66431 0 0
3.7124 0 0
3.7124 0 0
3.7605 0 0
3.7605 0 0
3.80859 0 0
3.80859 0 0
3.85669 0 0
3.85669 0 0
3.90479 0 0
3.90479 0 0
3.95288 0 0
3.95288 0 0
4.00098 0 0
4.00098 0 0
4.04907 0 0
4.04907 0 0
4.09717 0 0
4.09717 0 0
4.14526 0 0
4.14526 0 0
4.19336 0 0
4.19336 0 0
4.24146 0 0
4.24146 0 0
4.28955 0 0
4.28955 0 0
4.33765 0 0
4.33765 0 0
4.38574 0 0
4.38574 0 0
4.43384 0 0
4.43384 0 0
4.48193 0 0
4.48193 0 0
4.53003 0 0
4.53003 0 0
4.57812 0 0
4.57812 0 0
4.62622 0 0
4.62622 0 0
4.67432 0 0
4.67432 0 0
4.72241 0 0
4.72241 0 0
4.77051 0 0
4.77051 0 0
4.8186 0 0
4.8186 0 0
4.8667 0 0
4.8667 0 0
4.91479 0 0
4.91479 0 0
4.96289 0 0
4.96289 0 0
5.01099 0 0
5.01099 0 0
5.05908 0 0
5.05908 0 0
5.10718 0 0
5.10718 0 0
5.15527 0 0
5.15527 0 0
5.20337 0 0
5.20337 0 0
5.25146 0 0
5.25146 0 0
5.29956 0 0
5.29956 0 0
5.34766 0 0
5.34766 0 0
5.39575 0 0
5.39575 0 0
5.44385 0 0
5.44385 0 0
5.49194 0 0
5.49194 0 0
5.54004 0 0
5.54004 0 0
5.58813 0 0
5.58813 0 0
5.63623 0 0
5.63623 0 0
5.68433 0 0
5.68433 0 0
5.73242 0 0
5.73242 0 0
5.78052 0 0
5.78052 0 0
5.82861 0 0
5.82861 0 0
5.87671 0 0
5.87671 0 0
5.9248 0 0
5.9248 0 0
5.9729 0 0
5.9729 0 0
6.021 0 0
6.021 0 0
6.06909 0 0
6.06909 0 0
6.11719 0 0
6.11719 0 0
6.16528 0 0
6.16528 0 0
6.21338 0 0
6.21338 0 0
6.26147 0 0
6.26147 0 0
6.30957 0 0
6.30957 0 0
6.35767 0 0
6.35767 0 0
6.40576 0 0
6.40576 0 0
6.45386 0 0
6.45386 0 0
6.50195 0 0
6.50195 0 0
6.55005 0 0
6.55005 0 0
6.59814 0 0
6.59814 0 0
6.64624 0 0
6.64624 0 0
6.69434 0 0
6.69434 0 0
6.74243 0 0
6.74243 0 0
6.79053 0 0
6.79053 0 0
6.83862 0 0
6.83862 0 0
6.88672 0 0
6.88672 0 0
6.93481 0 0
6.93481 0 0
6.98291 0 0
6.98291 0 0
7.03101 0 0
7.03101 0 0
7.0791 0 0
7.0791 0 0
7.1272 0 0
7.1272 0 0
7.17529 0 0
7.17529 0 0
7.22339 0 0
7.22339 0 0
7.27148 0 0
7.27148 0 0
7.31958 0 0
7.31958 0 0
7.36768 0 0
7.36768 0 0
7.41577 0 0
7.41577 0 0
7.46387 0 0
7.46387 0 0
7.51196 0 0
7.51196 0 0
7.56006 0 0
7.56006 0 0
7.60815 0 0
7.60815 0 0
7.65625 0 0
7.65625 0 0
7.70435 0 0
7.70435 0 0
7.75244 0 0
7.75244 0 0
7.80054 0 0
7.80054 0 0
7.84863 0 0
7.84863 0 0
7.89673 0 0
7.89673 0 0
7.94482 0 0
7.94482 0 0
7.99292 0 0
7.99292 0 0
8.04102 0 0
8.04102 0 0
8.08911 0 0
8.08911 0 0
8.13721 0 0
8.13721 0 0
8.1853 0 0
8.1853 0 0
8.2334 0 0
8.2334 0 0
8.28149 0 0
8.28149 0 0
8.32959 0 0
8.32959 0 0
8.37769 0 0
8.37769 0 0
8.42578 0 0
8.42578 0 0
8.47388 0 0
8.47388 0 0
8.52197 0 0
8.52197 0 0
8.57007 0 0
8.57007 0 0
8.61816 0 0
8.61816 0 0
8.66626 0 0
8.66626 0 0
8.71436 0 0
8.71436 0 0
8.76245 0 0
8.76245 0 0
8.81055 0 0
8.81055 0 0
8.85864 0 0
8.85864 0 0
8.90674 0 0
8.90674 0 0
8.95483 0 0
8.95483 0 0
9.00293 0 0
9.00293 0 0
9.05103 0 0
9.05103 0 0
9.09912 0 0
9.09912 0 0
9.14722 0 0
9.14722 0 0
9.19531 0 0
9.19531 0 0
9.24341 0 0
9.24341 0 0
9.2915 0 0
9.2915 0 0
9.3396 0 0
9.3396 0 0
9.3877 0 0
9.3877 0 0
9.43579 0 0
9.43579 0 0
9.48389 0 0
9.48389 0 0
9.53198 0 0
9.53198 0 0
9.58008 0 0
9.58008 0 0
9.62817 0 0
9.62817 0 0
9.67627 0 0
9.67627 0 0
9.72437 0 0
9.72437 0 0
9.77246 0 0
9.77246 0 0
9.82056 0 0
9.82056 0 0
9.86865 0 0
9.86865 0 0
9.91675 0 0
9.91675 0 0
9.96484 0 0
9.96484 0 0
10.0129 0 0
10.0129 0 0
10.061 0 0
10.061 0 0
10.1091 0 0
10.1091 0 0
10.1572 0 0
10.1572 0 0
10.2053 0 0
10.2053 0 0
10.2534 0 0
10.2534 0 0
10.3015 0 0
10.3015 0 0
10.3496 0 0
10.3496 0 0
10.3977 0 0
10.3977 0 0
10.4458 0 0
10.4458 0 0
10.4939 0 0
10.4939 0 0
10.542 0 0
10.542 0 0
10.5901 0 0
10.5901 0 0
10.6382 0 0
10.6382 0 0
10.6863 0 0
10.6863 0 0
10.7344 0 0
10.7344 0 0
10.7825 0 0
10.7825 0 0
10.8306 0 0
10.8306 0 0
10.8787 0 0
10.8787 0 0
10.9268 0 0
10.9268 0 0
10.9749 0 0
10.9749 0 0
11.0229 0 0
11.0229 0 0
11.071 0 0
11.071 0 0
11.1191 0 0
11.1191 0 0
11.1672 0 0
11.1672 0 0
11.2153 0 0
11.2153 0 0
11.2634 0 0
11.2634 0 0
11.3115 0 0
11.3115 0 0
11.3596 0 0
11.3596 0 0
11.4077 0 0
11.4077 0 0
11.4558 0 0
11.4558 0 0
11.5039 0 0
11.5039 0 0
11.552 0 0
11.552 0 0
11.6001 0 0
11.6001 0 0
11.6482 0 0
11.6482 0 0
11.6963 0 0
11.6963 0 0
11.7444 0 0
11.7444 0 0
11.7925 0 0
11.7925 0 0
11.8406 0 0
11.8406 0 0
11.8887 0 0
11.8887 0 0
11.9368 0 0
11.9368 0 0
11.9849 0 0
11.9849 0 0
12.033 0 0
12.033 0 0
12.0811 0 0
12.0811 0 0
12.1292 0 0
12.1292 0 0
12.1772 0 0
12.1772 0 0
12.2253 0 0
12.2253 0 0
12.2734 0 0
12.2734 0 0
12.3215 0 0
12.3215 0 0
12.3696 0 0
12.3696 0 0
12.4177 0 0
12.4177 0 0
12.4658 0 0
12.4658 0 0
12.5139 0 0
12.5139 0 0
12.562 0 0
12.562 0 0
12.6101 0 0
12.6101 0 0
12.6582 0 0
12.6582 0 0
12.7063 0 0
12.7063 0 0
12.7544 0 0
12.7544 0 0
12.8025 0 0
12.8025 0 0
12.8506 0 0
12.8506 0 0
12.8987 0 0
12.8987 0 0
12.9468 0 0
12.9468 0 0
12.9949 0 0
12.9949 0 0
13.043 0 0
13.043 0 0
13.0911 0 0
13.0911 0 0
13.1392 0 0
13.1392 0 0
13.1873 0 0
13.1873 0 0
13.2354 0 0
13.2354 0 0
13.2834 0 0
13.2834 0 0
13.3315 0 0
13.3315 0 0
13.3796 0 0
13.3796 0 0
13.4277 0 0
13.4277 0 0
13.4758 0 0
13.4758 0 0
13.5239 0 0
13.5239 0 0
13.572 0 0
13.572 0 0
13.6201 0 0
13.6201 0 0
13.6682 0 0
13.6682 0 0
13.7163 0 0
13.7163 0 0
13.7644 0 0
13.7644 0 0
13.8125 0 0
13.8125 0 0
13.8606 0 0
13.8606 0 0
13.9087 0 0
13.9087 0 0
13.9568 0 0
13.9568 0 0
14.0049 0 0
14.0049 0 0
14.053 0 0
14.053 0 0
14.1011 0 0
14.1011 0 0
14.1492 0 0
14.1492 0 0
14.1973 0 0
14.1973 0 0
14.2454 0 0
14.2454 0 0
14.2935 0 0
14.2935 0 0
14.3416 0 0
14.3416 0 0
14.3896 0 0
14.3896 0 0
14.4377 0 0
14.4377 0 0
14.4858 0 0
14.4858 0 0
14.5339 0 0
14.5339 0 0
14.582 0 0
14.582 0 0
14.6301 0 0
14.6301 0 0
14.6782 0 0
14.6782 0 0
14.7263 0 0
14.7263 0 0
14.7744 0 0
14.7744 0 0
14.8225 0 0
14.8225 0 0
14.8706 0 0
14.8706 0 0
14.9187 0 0
14.9187 0 0
14.9668 0 0
14.9668 0 0
15.0149 0 0
15.0149 0 0
15.063 0 0
15.063 0 0
15.1111 0 0
15.1111 0 0
15.1592 0 0
15.1592 0 0
15.2073 0 0
15.2073 0 0
15.2554 0 0
15.2554 0 0
15.3035 0 0
15.3035 0 0
15.3516 0 0
15.3516 0 0
15.3997 0 0
15.3997 0 0
15.4478 0 0
15.4478 0 0
15.4958 0 0
15.4958 0 0
15.5439 0 0
15.5439 0 0
15.592 0 0
15.592 0 0
15.6401 0 0
15.6401 0 0
15.6882 0 0
15.6882 0 0
15.7363 0 0
15.7363 0 0
15.7844 0 0
15.7844 0 0
15.8325 0 0
15.8325 0 0
15.8806 0 0
15.8806 0 0
15.9287 0 0
15.9287 0 0
15.9768 0 0
15.9768 0 0
16.0249 0 0
16.0249 0 0
16.073 0 0
16.073 0 0
16.1211 0 0
16.1211 0 0
16.1692 0 0
16.1692 0 0
16.2173 0 0
16.2173 0 0
16.2654 0 0
16.2654 0 0
16.3135 0 0
16.3135 0 0
16.3616 0 0
16.3616 0 0
16.4097 0 0
16.4097 0 0
16.4578 0 0
16.4578 0 0
16.5059 0 0
16.5059 0 0
16.554 0 0
16.554 0 0
16.6021 0 0
16.6021 0 0
16.6501 0 0
16.6501 0 0
16.6982 0 0
16.6982 0 0
16.7463 0 0
16.7463 0 0
16.7944 0 0
16.7944 0 0
16.8425 0 0
16.8425 0 0
16.8906 0 0
16.8906 0 0
16.9387 0 0
16.9387 0 0
16.9868 0 0
16.9868 0 0
17.0349 0 0
17.0349 0 0
17.083 0 0
17.083 0 0
17.1311 0 0
17.1311 0 0
17.1792 0 0
17.1792 0 0
17.2273 0 0
17.2273 0 0
17.2754 0 0
17.2754 0 0
17.3235 0 0
17.3235 0 0
17.3716 0 0
17.3716 0 0
17.4197 0 0
17.4197 0 0
17.4678 0 0
17.4678 0 0
17.5159 0 0
17.5159 0 0
17.564 0 0
17.564 0 0
17.6121 0 0
17.6121 0 0
17.6602 0 0
17.6602 0 0
17.7083 0 0
17.7083 0 0
17.7563 0 0
17.7563 0 0
17.8044 0 0
17.8044 0 0
17.8525 0 0
17.8525 0 0
17.9006 0 0
17.9006 0 0
17.9487 0 0
17.9487 0 0
17.9968 0 0
17.9968 0 0
18.0449 0 0
18.0449 0 0
18.093 0 0
18.093 0 0
18.1411 0 0
18.1411 0 0
18.1892 0 0
18.1892 0 0
18.2373 0 0
18.2373 0 0
18.2854 0 0
18.2854 0 0
18.3335 0 0
18.3335 0 0
18.3816 0 0
18.3816 0 0
18.4297 0 0
18.4297 0 0
18.4778 0 0
18.4778 0 0
18.5259 0 0
18.5259 0 0
18.574 0 0
18.574 0 0
18.6221 0 0
18.6221 0 0
18.6702 0 0
18.6702 0 0
18.7183 0 0
18.7183 0 0
18.7664 0 0
18.7664 0 0
18.8145 0 0
18.8145 0 0
18.8625 0 0
18.8625 0 0
18.9106 0 0
18.9106 0 0
18.9587 0 0
18.9587 0 0
19.0068 0 0
19.0068 0 0
19.0549 0 0
19.0549 0 0
19.103 0 0
19.103 0 0
19.1511 0 0
19.1511 0 0
19.1992 0 0
19.1992 0 0
19.2473 0 0
19.2473 0 0
19.2954 0 0
19.2954 0 0
19.3435 0 0
19.3435 0 0
19.3916 0 0
19.3916 0 0
19.4397 0 0
19.4397 0 0
19.4878 0 0
19.4878 0 0
19.5359 0 0
19.5359 0 0
19.584 0 0
19.584 0 0
19.6321 0 0
19.6321 0 0
19.6802 0 0
19.6802 0 0
19.7283 0 0
19.7283 0 0
19.7764 0 0
19.7764 0 0
19.8245 0 0
19.8245 0 0
19.8726 0 0
19.8726 0 0
19.9207 0 0
19.9207 0 0
19.9688 0 0
19.9688 0 0
20.0168 0 0
20.0168 0 0
20.0649 0 0
20.0649 0 0
20.113 0 0
20.113 0 0
20.1611 0 0
20.1611 0 0
20.2092 0 0
20.2092 0 0
20.2573 0 0
20.2573 0 0
20.3054 0 0
20.3054 0 0
20.3535 0 0
20.3535 0 0
20.4016 0 0
20.4016 0 0
20.4497 0 0
20.4497 0 0
20.4978 0 0
20.4978 0 0
20.5459 0 0
20.5459 0 0
20.594 0 0
20.594 0 0
20.6421 0 0
20.6421 0 0
20.6902 0 0
20.6902 0 0
20.7383 0 0
20.7383 0 0
20.7864 0 0
20.7864 0 0
20.8345 0 0
20.8345 0 0
20.8826 0 0
20.8826 0 0
20.9307 0 0
20.9307 0 0
20.9788 0 0
20.9788 0 0
21.0269 0 0
21.0269 0 0
21.075 0 0
21.075 0 0
21.123 0 0
21.123 0 0
21.1711 0 0
21.1711 0 0
21.2192 0 0
21.2192 0 0
21.2673 0 0
21.2673 0 0
21.3154 0 0
21.3154 0 0
21.3635 0 0
21.3635 0 0
21.4116 0 0
[...]
POINT_DATA 4096
SCALARS solution_0 double 1
LOOKUP_TABLE default
1.69735e+09 1.66454e+09 1.66454e+09 1.6341e+09 1.6341e+09 1.60581e+09 1.60581e+09 1.57942e+09 1.57942e+09 1.55476e+09 1.55476e+09 1.53165e+09 1.53165e+09 1.50995e+09 1.50995e+09 1.48953e+09 1.48953e+09 1.47026e+09 1.47026e+09 1.45205e+09 1.45205e+09 1.4348e+09 1.4348e+09 1.41842e+09 1.41842e+09 1.40285e+09 1.40285e+09 1.38802e+09 1.38802e+09 1.37386e+09 1.37386e+09 1.36032e+09 1.36032e+09 1.34736e+09 1.34736e+09 1.33492e+09 1.33492e+09 1.32297e+09 1.32297e+09 1.31148e+09 1.31148e+09 1.3004e+09 1.3004e+09 1.28971e+09 1.28971e+09 1.27938e+09 1.27938e+09 1.26938e+09 1.26938e+09 1.2597e+09 1.2597e+09 1.2503e+09 1.2503e+09 1.24118e+09 1.24118e+09 1.23231e+09 1.23231e+09 1.22368e+09 1.22368e+09 1.21527e+09 1.21527e+09 1.20706e+09 1.20706e+09 1.19905e+09 1.19905e+09 1.19122e+09 1.19122e+09 1.18357e+09 1.18357e+09 1.17607e+09 1.17607e+09 1.16873e+09 1.16873e+09 1.16153e+09 1.16153e+09 1.15447e+09 1.15447e+09 1.14753e+09 1.14753e+09 1.14072e+09 1.14072e+09 1.13401e+09 1.13401e+09 1.12742e+09 1.12742e+09 1.12093e+09 1.12093e+09 1.11454e+09 1.11454e+09 1.10824e+09 1.10824e+09 1.10202e+09 1.10202e+09 1.09589e+09 1.09589e+09 1.08984e+09 1.08984e+09 1.08387e+09 1.08387e+09 1.07797e+09 1.07797e+09 1.07213e+09 1.07213e+09 1.06637e+09 1.06637e+09 1.06066e+09 1.06066e+09 1.05502e+09 1.05502e+09 1.04944e+09 1.04944e+09 1.04391e+09 1.04391e+09 1.03843e+09 1.03843e+09 1.03301e+09 1.03301e+09 1.02763e+09 1.02763e+09 1.02231e+09 1.02231e+09 1.01703e+09 1.01703e+09 1.01179e+09 1.01179e+09 1.0066e+09 1.0066e+09 1.00145e+09 1.00145e+09 9.96335e+08 9.96335e+08 9.91262e+08 9.91262e+08 9.86227e+08 9.86227e+08 9.81229e+08 9.81229e+08 9.76266e+08 9.76266e+08 9.71338e+08 9.71338e+08 9.66443e+08 9.66443e+08 9.61582e+08 9.61582e+08 9.56752e+08 9.56752e+08 9.51953e+08 9.51953e+08 9.47185e+08 9.47185e+08 9.42446e+08 9.42446e+08 9.37736e+08 9.37736e+08 9.33055e+08 9.33055e+08 9.28402e+08 9.28402e+08 9.23776e+08 9.23776e+08 9.19176e+08 9.19176e+08 9.14603e+08 9.14603e+08 9.10056e+08 9.10056e+08 9.05534e+08 9.05534e+08 9.01037e+08 9.01037e+08 8.96564e+08 8.96564e+08 8.92115e+08 8.92115e+08 8.87691e+08 8.87691e+08 8.83289e+08 8.83289e+08 8.78911e+08 8.78911e+08 8.74555e+08 8.74555e+08 8.70222e+08 8.70222e+08 8.65912e+08 8.65912e+08 8.61623e+08 8.61623e+08 8.57356e+08 8.57356e+08 8.5311e+08 8.5311e+08 8.48886e+08 8.48886e+08 8.44682e+08 8.44682e+08 8.40499e+08 8.40499e+08 8.36337e+08 8.36337e+08 8.32196e+08 8.32196e+08 8.28074e+08 8.28074e+08 8.23973e+08 8.23973e+08 8.19891e+08 8.19891e+08 8.1583e+08 8.1583e+08 8.11787e+08 8.11787e+08 8.07765e+08 8.07765e+08 8.03761e+08 8.03761e+08 7.99777e+08 7.99777e+08 7.95812e+08 7.95812e+08 7.91865e+08 7.91865e+08 7.87938e+08 7.87938e+08 7.84029e+08 7.84029e+08 7.80139e+08 7.80139e+08 7.76267e+08 7.76267e+08 7.72413e+08 7.72413e+08 7.68578e+08 7.68578e+08 7.64761e+08 7.64761e+08 7.60962e+08 7.60962e+08 7.57181e+08 7.57181e+08 7.53418e+08 7.53418e+08 7.49672e+08 7.49672e+08 7.45945e+08 7.45945e+08 7.42235e+08 7.42235e+08 7.38542e+08 7.38542e+08 7.34867e+08 7.34867e+08 7.3121e+08 7.3121e+08 7.27569e+08 7.27569e+08 7.23946e+08 7.23946e+08 7.2034e+08 7.2034e+08 7.16752e+08 7.16752e+08 7.1318e+08 7.1318e+08 7.09625e+08 7.09625e+08 7.06087e+08 7.06087e+08 7.02566e+08 7.02566e+08 6.99062e+08 6.99062e+08 6.95574e+08 6.95574e+08 6.92103e+08 6.92103e+08 6.88649e+08 6.88649e+08 6.85211e+08 6.85211e+08 6.8179e+08 6.8179e+08 6.78385e+08 6.78385e+08 6.74996e+08 6.74996e+08 6.71624e+08 6.71624e+08 6.68267e+08 6.68267e+08 6.64927e+08 6.64927e+08 6.61603e+08 6.61603e+08 6.58295e+08 6.58295e+08 6.55003e+08 6.55003e+08 6.51727e+08 6.51727e+08 6.48467e+08 6.48467e+08 6.45223e+08 6.45223e+08 6.41994e+08 6.41994e+08 6.38781e+08 6.38781e+08 6.35584e+08 6.35584e+08 6.32402e+08 6.32402e+08 6.29236e+08 6.29236e+08 6.26085e+08 6.26085e+08 6.2295e+08 6.2295e+08 6.1983e+08 6.1983e+08 6.16725e+08 6.16725e+08 6.13636e+08 6.13636e+08 6.10561e+08 6.10561e+08 6.07502e+08 6.07502e+08 6.04458e+08 6.04458e+08 6.01429e+08 6.01429e+08 5.98415e+08 5.98415e+08 5.95416e+08 5.95416e+08 5.92431e+08 5.92431e+08 5.89462e+08 5.89462e+08 5.86507e+08 5.86507e+08 5.83567e+08 5.83567e+08 5.80641e+08 5.80641e+08 5.7773e+08 5.7773e+08 5.74833e+08 5.74833e+08 5.71951e+08 5.71951e+08 5.69084e+08 5.69084e+08 5.6623e+08 5.6623e+08 5.63391e+08 5.63391e+08 5.60566e+08 5.60566e+08 5.57756e+08 5.57756e+08 5.54959e+08 5.54959e+08 5.52177e+08 5.52177e+08 5.49408e+08 5.49408e+08 5.46654e+08 5.46654e+08 5.43913e+08 5.43913e+08 5.41186e+08 5.41186e+08 5.38473e+08 5.38473e+08 5.35774e+08 5.35774e+08 5.33088e+08 5.33088e+08 5.30416e+08 5.30416e+08 5.27757e+08 5.27757e+08 5.25112e+08 5.25112e+08 5.2248e+08 5.2248e+08 5.19862e+08 5.19862e+08 5.17257e+08 5.17257e+08 5.14665e+08 5.14665e+08 5.12087e+08 5.12087e+08 5.09521e+08 5.09521e+08 5.06969e+08 5.06969e+08 5.0443e+08 5.0443e+08 5.01903e+08 5.01903e+08 4.9939e+08 4.9939e+08 4.96889e+08 4.96889e+08 4.94402e+08 4.94402e+08 4.91927e+08 4.91927e+08 4.89464e+08 4.89464e+08 4.87015e+08 4.87015e+08 4.84578e+08 4.84578e+08 4.82153e+08 4.82153e+08 4.79741e+08 4.79741e+08 4.77341e+08 4.77341e+08 4.74954e+08 4.74954e+08 4.72579e+08 4.72579e+08 4.70216e+08 4.70216e+08 4.67865e+08 4.67865e+08 4.65527e+08 4.65527e+08 4.632e+08 4.632e+08 4.60886e+08 4.60886e+08 4.58583e+08 4.58583e+08 4.56292e+08 4.56292e+08 4.54014e+08 4.54014e+08 4.51747e+08 4.51747e+08 4.49491e+08 4.49491e+08 4.47248e+08 4.47248e+08 4.45016e+08 4.45016e+08 4.42795e+08 4.42795e+08 4.40586e+08 4.40586e+08 4.38389e+08 4.38389e+08 4.36203e+08 4.36203e+08 4.34028e+08 4.34028e+08 4.31865e+08 4.31865e+08 4.29713e+08 4.29713e+08 4.27571e+08 4.27571e+08 4.25442e+08 4.25442e+08 4.23323e+08 4.23323e+08 4.21215e+08 4.21215e+08 4.19118e+08 4.19118e+08 4.17032e+08 4.17032e+08 4.14957e+08 4.14957e+08 4.12892e+08 4.12892e+08 4.10839e+08 4.10839e+08 4.08796e+08 4.08796e+08 4.06764e+08 4.06764e+08 4.04742e+08 4.04742e+08 4.02731e+08 4.02731e+08 4.0073e+08 4.0073e+08 3.9874e+08 3.9874e+08 3.9676e+08 3.9676e+08 3.9479e+08 3.9479e+08 3.92831e+08 3.92831e+08 3.90882e+08 3.90882e+08 3.88943e+08 3.88943e+08 3.87014e+08 3.87014e+08 3.85095e+08 3.85095e+08 3.83186e+08 3.83186e+08 3.81287e+08 3.81287e+08 3.79398e+08 3.79398e+08 3.77519e+08 3.77519e+08 3.7565e+08 3.7565e+08 3.7379e+08 3.7379e+08 3.7194e+08 3.7194e+08 3.701e+08 3.701e+08 3.68269e+08 3.68269e+08 3.66448e+08 3.66448e+08 3.64636e+08 3.64636e+08 3.62834e+08 3.62834e+08 3.61041e+08 3.61041e+08 3.59258e+08 3.59258e+08 3.57483e+08 3.57483e+08 3.55719e+08 3.55719e+08 3.53963e+08 3.53963e+08 3.52216e+08 3.52216e+08 3.50479e+08 3.50479e+08 3.4875e+08 3.4875e+08 3.47031e+08 3.47031e+08 3.4532e+08 3.4532e+08 3.43618e+08 3.43618e+08 3.41926e+08 3.41926e+08 3.40242e+08 3.40242e+08 3.38567e+08 3.38567e+08 3.369e+08 3.369e+08 3.35242e+08 3.35242e+08 3.33593e+08 3.33593e+08 3.31952e+08 3.31952e+08 3.3032e+08 3.3032e+08 3.28697e+08 3.28697e+08 3.27081e+08 3.27081e+08 3.25475e+08 3.25475e+08 3.23876e+08 3.23876e+08 3.22286e+08 3.22286e+08 3.20704e+08 3.20704e+08 3.1913e+08 3.1913e+08 3.17565e+08 3.17565e+08 3.16007e+08 3.16007e+08 3.14458e+08 3.14458e+08 3.12917e+08 3.12917e+08 3.11383e+08 3.11383e+08 3.09858e+08 3.09858e+08 3.0834e+08 3.0834e+08 3.06831e+08 3.06831e+08 3.05329e+08 3.05329e+08 3.03835e+08 3.03835e+08 3.02348e+08 3.02348e+08 3.00869e+08 3.00869e+08 2.99398e+08 2.99398e+08 2.97935e+08 2.97935e+08 2.96479e+08 2.96479e+08 2.95031e+08 2.95031e+08 2.9359e+08 2.9359e+08 2.92156e+08 2.92156e+08 2.9073e+08 2.9073e+08 2.89311e+08 2.89311e+08 2.879e+08 2.879e+08 2.86496e+08 2.86496e+08 2.85099e+08 2.85099e+08 2.83709e+08 2.83709e+08 2.82326e+08 2.82326e+08 2.80951e+08 2.80951e+08 2.79582e+08 2.79582e+08 2.78221e+08 2.78221e+08 2.76866e+08 2.76866e+08 2.75519e+08 2.75519e+08 2.74178e+08 2.74178e+08 2.72845e+08 2.72845e+08 2.71518e+08 2.71518e+08 2.70198e+08 2.70198e+08 2.68884e+08 2.68884e+08 2.67578e+08 2.67578e+08 2.66278e+08 2.66278e+08 2.64984e+08 2.64984e+08 2.63698e+08 2.63698e+08 2.62417e+08 2.62417e+08 2.61144e+08 2.61144e+08 2.59877e+08 2.59877e+08 2.58616e+08 2.58616e+08 2.57362e+08 2.57362e+08 2.56114e+08 2.56114e+08 2.54872e+08 2.54872e+08 2.53637e+08 2.53637e+08 2.52408e+08 2.52408e+08 2.51186e+08 2.51186e+08 2.49969e+08 2.49969e+08 2.48759e+08 2.48759e+08 2.47555e+08 2.47555e+08 2.46357e+08 2.46357e+08 2.45165e+08 2.45165e+08 2.43979e+08 2.43979e+08 2.42799e+08 2.42799e+08 2.41625e+08 2.41625e+08 2.40456e+08 2.40456e+08 2.39294e+08 2.39294e+08 2.38138e+08 2.38138e+08 2.36987e+08 2.36987e+08 2.35843e+08 2.35843e+08 2.34704e+08 2.34704e+08 2.33571e+08 2.33571e+08 2.32443e+08 2.32443e+08 2.31321e+08 2.31321e+08 2.30205e+08 2.30205e+08 2.29095e+08 2.29095e+08 2.2799e+08 2.2799e+08 2.2689e+08 2.2689e+08 2.25796e+08 2.25796e+08 2.24708e+08 2.24708e+08 2.23625e+08 2.23625e+08 2.22547e+08 2.22547e+08 2.21475e+08 2.21475e+08 2.20408e+08 2.20408e+08 2.19346e+08 2.19346e+08 2.1829e+08 2.1829e+08 2.17239e+08 2.17239e+08 2.16193e+08 2.16193e+08 2.15153e+08 2.15153e+08 2.14117e+08 2.14117e+08 2.13087e+08 2.13087e+08 2.12062e+08 2.12062e+08 2.11042e+08 2.11042e+08 2.10027e+08 2.10027e+08 2.09017e+08 2.09017e+08 2.08012e+08 2.08012e+08 2.07012e+08 2.07012e+08 2.06017e+08 2.06017e+08 2.05027e+08 2.05027e+08 2.04041e+08 2.04041e+08 2.03061e+08 2.03061e+08 2.02086e+08 2.02086e+08 2.01115e+08 2.01115e+08 2.00149e+08 2.00149e+08 1.99188e+08 1.99188e+08 1.98231e+08 1.98231e+08 1.97279e+08 1.97279e+08 1.96332e+08 1.96332e+08 1.9539e+08 1.9539e+08 1.94452e+08 1.94452e+08 1.93519e+08 1.93519e+08 1.9259e+08 1.9259e+08 1.91666e+08 1.91666e+08 1.90746e+08 1.90746e+08 1.89831e+08 1.89831e+08 1.88921e+08 1.88921e+08 1.88014e+08 1.88014e+08 1.87112e+08 1.87112e+08 1.86215e+08 1.86215e+08 1.85322e+08 1.85322e+08 1.84433e+08 1.84433e+08 1.83549e+08 1.83549e+08 1.82669e+08 1.82669e+08 1.81793e+08 1.81793e+08 1.80921e+08 1.80921e+08 1.80054e+08 1.80054e+08 1.79191e+08 1.79191e+08 1.78332e+08 1.78332e+08 1.77477e+08 1.77477e+08 1.76626e+08 1.76626e+08 1.75779e+08 1.75779e+08 1.74937e+08 1.74937e+08 1.74098e+08 1.74098e+08 1.73264e+08 1.73264e+08 1.72433e+08 1.72433e+08 1.71607e+08 1.71607e+08 1.70784e+08 1.70784e+08 1.69966e+08 1.69966e+08 1.69151e+08 1.69151e+08 1.68341e+08 1.68341e+08 1.67534e+08 1.67534e+08 1.66731e+08 1.66731e+08 1.65931e+08 1.65931e+08 1.65136e+08 1.65136e+08 1.64345e+08 1.64345e+08 1.63557e+08 1.63557e+08 1.62773e+08 1.62773e+08 1.61992e+08 1.61992e+08 1.61216e+08 1.61216e+08 1.60443e+08 1.60443e+08 1.59674e+08 1.59674e+08 1.58908e+08 1.58908e+08 1.58146e+08 1.58146e+08 1.57388e+08 1.57388e+08 1.56633e+08 1.56633e+08 1.55881e+08 1.55881e+08 1.55134e+08 1.55134e+08 1.5439e+08 1.5439e+08 1.53649e+08 1.53649e+08 1.52912e+08 1.52912e+08 1.52178e+08 1.52178e+08 1.51448e+08 1.51448e+08 1.50721e+08 1.50721e+08 1.49997e+08 1.49997e+08 1.49277e+08 1.49277e+08 1.48561e+08 1.48561e+08 1.47847e+08 1.47847e+08 1.47137e+08 1.47137e+08 1.46431e+08 1.46431e+08 1.45727e+08 1.45727e+08 1.45027e+08 1.45027e+08 1.4433e+08 1.4433e+08 1.43637e+08 1.43637e+08 1.42947e+08 1.42947e+08 1.42259e+08 1.42259e+08 1.41575e+08 1.41575e+08 1.40895e+08 1.40895e+08 1.40217e+08 1.40217e+08 1.39542e+08 1.39542e+08 1.38871e+08 1.38871e+08 1.38203e+08 1.38203e+08 1.37538e+08 1.37538e+08 1.36875e+08 1.36875e+08 1.36216e+08 1.36216e+08 1.3556e+08 1.3556e+08 1.34907e+08 1.34907e+08 1.34257e+08 1.34257e+08 1.3361e+08 1.3361e+08 1.32966e+08 1.32966e+08 1.32325e+08 1.32325e+08 1.31687e+08 1.31687e+08 1.31052e+08 1.31052e+08 1.30419e+08 1.30419e+08 1.2979e+08 1.2979e+08 1.29163e+08 1.29163e+08 1.2854e+08 1.2854e+08 1.27919e+08 1.27919e+08 1.27301e+08 1.27301e+08 1.26685e+08 1.26685e+08 1.26073e+08 1.26073e+08 1.25463e+08 1.25463e+08 1.24856e+08 1.24856e+08 1.24252e+08 1.24252e+08 1.23651e+08 1.23651e+08 1.23052e+08 1.23052e+08 1.22456e+08 1.22456e+08 1.21863e+08 1.21863e+08 1.21272e+08 1.21272e+08 1.20684e+08 1.20684e+08 1.20099e+08 1.20099e+08 1.19516e+08 1.19516e+08 1.18936e+08 1.18936e+08 1.18359e+08 1.18359e+08 1.17784e+08 1.17784e+08 1.17211e+08 1.17211e+08 1.16642e+08 1.16642e+08 1.16074e+08 1.16074e+08 1.1551e+08 1.1551e+08 1.14948e+08 1.14948e+08 1.14388e+08 1.14388e+08 1.13831e+08 1.13831e+08 1.13276e+08 1.13276e+08 1.12724e+08 1.12724e+08 1.12174e+08 1.12174e+08 1.11627e+08 1.11627e+08 1.11082e+08 1.11082e+08 1.1054e+08 1.1054e+08 1.1e+08 1.1e+08 1.09462e+08 1.09462e+08 1.08927e+08 1.08927e+08 1.08394e+08 1.08394e+08 1.07864e+08 1.07864e+08 1.07335e+08 1.07335e+08 1.06809e+08 1.06809e+08 1.06286e+08 1.06286e+08 1.05765e+08 1.05765e+08 1.05246e+08 1.05246e+08 1.04729e+08 1.04729e+08 1.04215e+08 1.04215e+08 1.03702e+08 1.03702e+08 1.03192e+08 1.03192e+08 1.02685e+08 1.02685e+08 1.02179e+08 1.02179e+08 1.01676e+08 1.01676e+08 1.01175e+08 1.01175e+08 1.00676e+08 1.00676e+08 1.00179e+08 1.00179e+08 9.96848e+07 9.96848e+07 9.91924e+07 9.91924e+07 9.87021e+07 9.87021e+07 9.8214e+07 9.8214e+07 9.7728e+07 9.7728e+07 9.7244e+07 9.7244e+07 9.67622e+07 9.67622e+07 9.62825e+07 9.62825e+07 9.58048e+07 9.58048e+07 9.53292e+07 9.53292e+07 9.48556e+07 9.48556e+07 9.43841e+07 9.43841e+07 9.39146e+07 9.39146e+07 9.34472e+07 9.34472e+07 9.29817e+07 9.29817e+07 9.25182e+07 9.25182e+07 9.20567e+07 9.20567e+07 9.15972e+07 9.15972e+07 9.11397e+07 9.11397e+07 9.06841e+07 9.06841e+07 9.02305e+07 9.02305e+07 8.97788e+07 8.97788e+07 8.9329e+07 8.9329e+07 8.88812e+07 8.88812e+07 8.84352e+07 8.84352e+07 8.79912e+07 8.79912e+07 8.7549e+07 8.7549e+07 8.71087e+07 8.71087e+07 8.66703e+07 8.66703e+07 8.62337e+07 8.62337e+07 8.5799e+07 8.5799e+07 8.53661e+07 8.53661e+07 8.49351e+07 8.49351e+07 8.45058e+07 8.45058e+07 8.40784e+07 8.40784e+07 8.36528e+07 8.36528e+07 8.3229e+07 8.3229e+07 8.2807e+07 8.2807e+07 8.23867e+07 8.23867e+07 8.19682e+07 8.19682e+07 8.15514e+07 8.15514e+07 8.11364e+07 8.11364e+07 8.07232e+07 8.07232e+07 8.03116e+07 8.03116e+07 7.99018e+07 7.99018e+07 7.94937e+07 7.94937e+07 7.90873e+07 7.90873e+07 7.86826e+07 7.86826e+07 7.82796e+07 7.82796e+07 7.78782e+07 7.78782e+07 7.74786e+07 7.74786e+07 7.70806e+07 7.70806e+07 7.66842e+07 7.66842e+07 7.62895e+07 7.62895e+07 7.58964e+07 7.58964e+07 7.55049e+07 7.55049e+07 7.51151e+07 7.51151e+07 7.47269e+07 7.47269e+07 7.43403e+07 7.43403e+07 7.39552e+07 7.39552e+07 7.35718e+07 7.35718e+07 7.31899e+07 7.31899e+07 7.28096e+07 7.28096e+07 7.24309e+07 7.24309e+07 7.20537e+07 7.20537e+07 7.16781e+07 7.16781e+07 7.1304e+07 7.1304e+07 7.09315e+07 7.09315e+07 7.05604e+07 7.05604e+07 7.01909e+07 7.01909e+07 6.98229e+07 6.98229e+07 6.94564e+07 6.94564e+07 6.90914e+07 6.90914e+07 6.87279e+07 6.87279e+07 6.83658e+07 6.83658e+07 6.80052e+07 6.80052e+07 6.76461e+07 6.76461e+07 6.72885e+07 6.72885e+07 6.69323e+07 6.69323e+07 6.65775e+07 6.65775e+07 6.62242e+07 6.62242e+07 6.58723e+07 6.58723e+07 6.55219e+07 6.55219e+07 6.51728e+07 6.51728e+07 6.48252e+07 6.48252e+07 6.44789e+07 6.44789e+07 6.41341e+07 6.41341e+07 6.37906e+07 6.37906e+07 6.34485e+07 6.34485e+07 6.31078e+07 6.31078e+07 6.27685e+07 6.27685e+07 6.24305e+07 6.24305e+07 6.20939e+07 6.20939e+07 6.17586e+07 6.17586e+07 6.14246e+07 6.14246e+07 6.1092e+07 6.1092e+07 6.07608e+07 6.07608e+07 6.04308e+07 6.04308e+07 6.01022e+07 6.01022e+07 5.97748e+07 5.97748e+07 5.94488e+07 5.94488e+07 5.91241e+07 5.91241e+07 5.88006e+07 5.88006e+07 5.84785e+07 5.84785e+07 5.81576e+07 5.81576e+07 5.7838e+07 5.7838e+07 5.75196e+07 5.75196e+07 5.72026e+07 5.72026e+07 5.68867e+07 5.68867e+07 5.65721e+07 5.65721e+07 5.62588e+07 5.62588e+07 5.59467e+07 5.59467e+07 5.56358e+07 5.56358e+07 5.53261e+07 5.53261e+07 5.50177e+07 5.50177e+07 5.47105e+07 5.47105e+07 5.44044e+07 5.44044e+07 5.40996e+07 5.40996e+07 5.3796e+07 5.3796e+07 5.34935e+07 5.34935e+07 5.31923e+07 5.31923e+07 5.28922e+07 5.28922e+07 5.25933e+07 5.25933e+07 5.22955e+07 5.22955e+07 5.1999e+07 5.1999e+07 5.17035e+07 5.17035e+07 5.14092e+07 5.14092e+07 5.11161e+07 5.11161e+07 5.08241e+07 5.08241e+07 5.05332e+07 5.05332e+07 5.02435e+07 5.02435e+07 4.99549e+07 4.99549e+07 4.96674e+07 4.96674e+07 4.9381e+07 4.9381e+07 4.90957e+07 4.90957e+07 4.88116e+07 4.88116e+07 4.85285e+07 4.85285e+07 4.82465e+07 4.82465e+07 4.79656e+07 4.79656e+07 4.76858e+07 4.76858e+07 4.7407e+07 4.7407e+07 4.71294e+07 4.71294e+07 4.68528e+07 4.68528e+07 4.65772e+07 4.65772e+07 4.63027e+07 4.63027e+07 4.60293e+07 4.60293e+07 4.57569e+07 4.57569e+07 4.54856e+07 4.54856e+07 4.52152e+07 4.52152e+07 4.4946e+07 4.4946e+07 4.46777e+07 4.46777e+07 4.44105e+07 4.44105e+07 4.41443e+07 4.41443e+07 4.38791e+07 4.38791e+07 4.36149e+07 4.36149e+07 4.33517e+07 4.33517e+07 4.30895e+07 4.30895e+07 4.28283e+07 4.28283e+07 4.25681e+07 4.25681e+07 4.23089e+07 4.23089e+07 4.20507e+07 4.20507e+07 4.17934e+07 4.17934e+07 4.15371e+07 4.15371e+07 4.12818e+07 4.12818e+07 4.10274e+07 4.10274e+07 4.0774e+07 4.0774e+07 4.05216e+07 4.05216e+07 4.02701e+07 4.02701e+07 4.00195e+07 4.00195e+07 3.97699e+07 3.97699e+07 3.95213e+07 3.95213e+07 3.92735e+07 3.92735e+07 3.90267e+07 3.90267e+07 3.87808e+07 3.87808e+07 3.85359e+07 3.85359e+07 3.82918e+07 3.82918e+07 3.80487e+07 3.80487e+07 3.78064e+07 3.78064e+07 3.75651e+07 3.75651e+07 3.73247e+07 3.73247e+07 3.70852e+07 3.70852e+07 3.68465e+07 3.68465e+07 3.66088e+07 3.66088e+07 3.63719e+07 3.63719e+07 3.61359e+07 3.61359e+07 3.59008e+07 3.59008e+07 3.56666e+07 3.56666e+07 3.54332e+07 3.54332e+07 3.52007e+07 3.52007e+07 3.4969e+07 3.4969e+07 3.47382e+07 3.47382e+07 3.45083e+07 3.45083e+07 3.42792e+07 3.42792e+07 3.40509e+07 3.40509e+07 3.38235e+07 3.38235e+07 3.3597e+07 3.3597e+07 3.33712e+07 3.33712e+07 3.31463e+07 3.31463e+07 3.29222e+07 3.29222e+07 3.2699e+07 3.2699e+07 3.24765e+07 3.24765e+07 3.22549e+07 3.22549e+07 3.20341e+07 3.20341e+07 3.18141e+07 3.18141e+07 3.15949e+07 3.15949e+07 3.13765e+07 3.13765e+07 3.11589e+07 3.11589e+07 3.09421e+07 3.09421e+07 3.0726e+07 3.0726e+07 3.05108e+07 3.05108e+07 3.02964e+07 3.02964e+07 3.00827e+07 3.00827e+07 2.98698e+07 2.98698e+07 2.96577e+07 2.96577e+07 2.94463e+07 2.94463e+07 2.92358e+07 2.92358e+07 2.90259e+07 2.90259e+07 2.88169e+07 2.88169e+07 2.86086e+07 2.86086e+07 2.8401e+07 2.8401e+07 2.81942e+07 2.81942e+07 2.79882e+07 2.79882e+07 2.77829e+07 2.77829e+07 2.75783e+07 2.75783e+07 2.73745e+07 2.73745e+07 2.71714e+07 2.71714e+07 2.6969e+07 2.6969e+07 2.67674e+07 2.67674e+07 2.65664e+07 2.65664e+07 2.63662e+07 2.63662e+07 2.61668e+07 2.61668e+07 2.5968e+07 2.5968e+07 2.577e+07 2.577e+07 2.55726e+07 2.55726e+07 2.5376e+07 2.5376e+07 2.518e+07 2.518e+07 2.49848e+07 2.49848e+07 2.47903e+07 2.47903e+07 2.45964e+07 2.45964e+07 2.44033e+07 2.44033e+07 2.42108e+07 2.42108e+07 2.4019e+07 2.4019e+07 2.38279e+07 2.38279e+07 2.36375e+07 2.36375e+07 2.34478e+07 2.34478e+07 2.32587e+07 2.32587e+07 2.30703e+07 2.30703e+07 2.28826e+07 2.28826e+07 2.26955e+07 2.26955e+07 2.25091e+07 2.25091e+07 2.23234e+07 2.23234e+07 2.21383e+07 2.21383e+07 2.19539e+07 2.19539e+07 2.17701e+07 2.17701e+07 2.1587e+07 2.1587e+07 2.14045e+07 2.14045e+07 2.12226e+07 2.12226e+07 2.10414e+07 2.10414e+07 2.08608e+07 2.08608e+07 2.06809e+07 2.06809e+07 2.05016e+07 2.05016e+07 2.03229e+07 2.03229e+07 2.01449e+07 2.01449e+07 1.99675e+07 1.99675e+07 1.97907e+07 1.97907e+07 1.96145e+07 1.96145e+07 1.94389e+07 1.94389e+07 1.9264e+07 1.9264e+07 1.90896e+07 1.90896e+07 1.89159e+07 1.89159e+07 1.87428e+07 1.87428e+07 1.85703e+07 1.85703e+07 1.83983e+07 1.83983e+07 1.8227e+07 1.8227e+07 1.80563e+07 1.80563e+07 1.78862e+07 1.78862e+07 1.77166e+07 1.77166e+07 1.75477e+07 1.75477e+07 1.73793e+07 1.73793e+07 1.72115e+07 1.72115e+07 1.70443e+07 1.70443e+07 1.68777e+07 1.68777e+07 1.67116e+07 1.67116e+07 1.65462e+07 1.65462e+07 1.63813e+07 1.63813e+07 1.6217e+07 1.6217e+07 1.60532e+07 1.60532e+07 1.589e+07 1.589e+07 1.57274e+07 1.57274e+07 1.55653e+07 1.55653e+07 1.54038e+07 1.54038e+07 1.52428e+07 1.52428e+07 1.50824e+07 1.50824e+07 1.49225e+07 1.49225e+07 1.47632e+07 1.47632e+07 1.46045e+07 1.46045e+07 1.44463e+07 1.44463e+07 1.42886e+07 1.42886e+07 1.41315e+07 1.41315e+07 1.39749e+07 1.39749e+07 1.38188e+07 1.38188e+07 1.36633e+07 1.36633e+07 1.35083e+07 1.35083e+07 1.33538e+07 1.33538e+07 1.31999e+07 1.31999e+07 1.30465e+07 1.30465e+07