# vtk DataFile Version 3.0
#This file was generated by the deal.II library on 2020/9/6 at 3:48:18
ASCII
DATASET UNSTRUCTURED_GRID

POINTS 4096 double
1.5 0 0
1.5481 0 0
1.5481 0 0
1.59619 0 0
1.59619 0 0
1.64429 0 0
1.64429 0 0
1.69238 0 0
1.69238 0 0
1.74048 0 0
1.74048 0 0
1.78857 0 0
1.78857 0 0
1.83667 0 0
1.83667 0 0
1.88477 0 0
1.88477 0 0
1.93286 0 0
1.93286 0 0
1.98096 0 0
1.98096 0 0
2.02905 0 0
2.02905 0 0
2.07715 0 0
2.07715 0 0
2.12524 0 0
2.12524 0 0
2.17334 0 0
2.17334 0 0
2.22144 0 0
2.22144 0 0
2.26953 0 0
2.26953 0 0
2.31763 0 0
2.31763 0 0
2.36572 0 0
2.36572 0 0
2.41382 0 0
2.41382 0 0
2.46191 0 0
2.46191 0 0
2.51001 0 0
2.51001 0 0
2.55811 0 0
2.55811 0 0
2.6062 0 0
2.6062 0 0
2.6543 0 0
2.6543 0 0
2.70239 0 0
2.70239 0 0
2.75049 0 0
2.75049 0 0
2.79858 0 0
2.79858 0 0
2.84668 0 0
2.84668 0 0
2.89478 0 0
2.89478 0 0
2.94287 0 0
2.94287 0 0
2.99097 0 0
2.99097 0 0
3.03906 0 0
3.03906 0 0
3.08716 0 0
3.08716 0 0
3.13525 0 0
3.13525 0 0
3.18335 0 0
3.18335 0 0
3.23145 0 0
3.23145 0 0
3.27954 0 0
3.27954 0 0
3.32764 0 0
3.32764 0 0
3.37573 0 0
3.37573 0 0
3.42383 0 0
3.42383 0 0
3.47192 0 0
3.47192 0 0
3.52002 0 0
3.52002 0 0
3.56812 0 0
3.56812 0 0
3.61621 0 0
3.61621 0 0
3.66431 0 0
3.66431 0 0
3.7124 0 0
3.7124 0 0
3.7605 0 0
3.7605 0 0
3.80859 0 0
3.80859 0 0
3.85669 0 0
3.85669 0 0
3.90479 0 0
3.90479 0 0
3.95288 0 0
3.95288 0 0
4.00098 0 0
4.00098 0 0
4.04907 0 0
4.04907 0 0
4.09717 0 0
4.09717 0 0
4.14526 0 0
4.14526 0 0
4.19336 0 0
4.19336 0 0
4.24146 0 0
4.24146 0 0
4.28955 0 0
4.28955 0 0
4.33765 0 0
4.33765 0 0
4.38574 0 0
4.38574 0 0
4.43384 0 0
4.43384 0 0
4.48193 0 0
4.48193 0 0
4.53003 0 0
4.53003 0 0
4.57812 0 0
4.57812 0 0
4.62622 0 0
4.62622 0 0
4.67432 0 0
4.67432 0 0
4.72241 0 0
4.72241 0 0
4.77051 0 0
4.77051 0 0
4.8186 0 0
4.8186 0 0
4.8667 0 0
4.8667 0 0
4.91479 0 0
4.91479 0 0
4.96289 0 0
4.96289 0 0
5.01099 0 0
5.01099 0 0
5.05908 0 0
5.05908 0 0
5.10718 0 0
5.10718 0 0
5.15527 0 0
5.15527 0 0
5.20337 0 0
5.20337 0 0
5.25146 0 0
5.25146 0 0
5.29956 0 0
5.29956 0 0
5.34766 0 0
5.34766 0 0
5.39575 0 0
5.39575 0 0
5.44385 0 0
5.44385 0 0
5.49194 0 0
5.49194 0 0
5.54004 0 0
5.54004 0 0
5.58813 0 0
5.58813 0 0
5.63623 0 0
5.63623 0 0
5.68433 0 0
5.68433 0 0
5.73242 0 0
5.73242 0 0
5.78052 0 0
5.78052 0 0
5.82861 0 0
5.82861 0 0
5.87671 0 0
5.87671 0 0
5.9248 0 0
5.9248 0 0
5.9729 0 0
5.9729 0 0
6.021 0 0
6.021 0 0
6.06909 0 0
6.06909 0 0
6.11719 0 0
6.11719 0 0
6.16528 0 0
6.16528 0 0
6.21338 0 0
6.21338 0 0
6.26147 0 0
6.26147 0 0
6.30957 0 0
6.30957 0 0
6.35767 0 0
6.35767 0 0
6.40576 0 0
6.40576 0 0
6.45386 0 0
6.45386 0 0
6.50195 0 0
6.50195 0 0
6.55005 0 0
6.55005 0 0
6.59814 0 0
6.59814 0 0
6.64624 0 0
6.64624 0 0
6.69434 0 0
6.69434 0 0
6.74243 0 0
6.74243 0 0
6.79053 0 0
6.79053 0 0
6.83862 0 0
6.83862 0 0
6.88672 0 0
6.88672 0 0
6.93481 0 0
6.93481 0 0
6.98291 0 0
6.98291 0 0
7.03101 0 0
7.03101 0 0
7.0791 0 0
7.0791 0 0
7.1272 0 0
7.1272 0 0
7.17529 0 0
7.17529 0 0
7.22339 0 0
7.22339 0 0
7.27148 0 0
7.27148 0 0
7.31958 0 0
7.31958 0 0
7.36768 0 0
7.36768 0 0
7.41577 0 0
7.41577 0 0
7.46387 0 0
7.46387 0 0
7.51196 0 0
7.51196 0 0
7.56006 0 0
7.56006 0 0
7.60815 0 0
7.60815 0 0
7.65625 0 0
7.65625 0 0
7.70435 0 0
7.70435 0 0
7.75244 0 0
7.75244 0 0
7.80054 0 0
7.80054 0 0
7.84863 0 0
7.84863 0 0
7.89673 0 0
7.89673 0 0
7.94482 0 0
7.94482 0 0
7.99292 0 0
7.99292 0 0
8.04102 0 0
8.04102 0 0
8.08911 0 0
8.08911 0 0
8.13721 0 0
8.13721 0 0
8.1853 0 0
8.1853 0 0
8.2334 0 0
8.2334 0 0
8.28149 0 0
8.28149 0 0
8.32959 0 0
8.32959 0 0
8.37769 0 0
8.37769 0 0
8.42578 0 0
8.42578 0 0
8.47388 0 0
8.47388 0 0
8.52197 0 0
8.52197 0 0
8.57007 0 0
8.57007 0 0
8.61816 0 0
8.61816 0 0
8.66626 0 0
8.66626 0 0
8.71436 0 0
8.71436 0 0
8.76245 0 0
8.76245 0 0
8.81055 0 0
8.81055 0 0
8.85864 0 0
8.85864 0 0
8.90674 0 0
8.90674 0 0
8.95483 0 0
8.95483 0 0
9.00293 0 0
9.00293 0 0
9.05103 0 0
9.05103 0 0
9.09912 0 0
9.09912 0 0
9.14722 0 0
9.14722 0 0
9.19531 0 0
9.19531 0 0
9.24341 0 0
9.24341 0 0
9.2915 0 0
9.2915 0 0
9.3396 0 0
9.3396 0 0
9.3877 0 0
9.3877 0 0
9.43579 0 0
9.43579 0 0
9.48389 0 0
9.48389 0 0
9.53198 0 0
9.53198 0 0
9.58008 0 0
9.58008 0 0
9.62817 0 0
9.62817 0 0
9.67627 0 0
9.67627 0 0
9.72437 0 0
9.72437 0 0
9.77246 0 0
9.77246 0 0
9.82056 0 0
9.82056 0 0
9.86865 0 0
9.86865 0 0
9.91675 0 0
9.91675 0 0
9.96484 0 0
9.96484 0 0
10.0129 0 0
10.0129 0 0
10.061 0 0
10.061 0 0
10.1091 0 0
10.1091 0 0
10.1572 0 0
10.1572 0 0
10.2053 0 0
10.2053 0 0
10.2534 0 0
10.2534 0 0
10.3015 0 0
10.3015 0 0
10.3496 0 0
10.3496 0 0
10.3977 0 0
10.3977 0 0
10.4458 0 0
10.4458 0 0
10.4939 0 0
10.4939 0 0
10.542 0 0
10.542 0 0
10.5901 0 0
10.5901 0 0
10.6382 0 0
10.6382 0 0
10.6863 0 0
10.6863 0 0
10.7344 0 0
10.7344 0 0
10.7825 0 0
10.7825 0 0
10.8306 0 0
10.8306 0 0
10.8787 0 0
10.8787 0 0
10.9268 0 0
10.9268 0 0
10.9749 0 0
10.9749 0 0
11.0229 0 0
11.0229 0 0
11.071 0 0
11.071 0 0
11.1191 0 0
11.1191 0 0
11.1672 0 0
11.1672 0 0
11.2153 0 0
11.2153 0 0
11.2634 0 0
11.2634 0 0
11.3115 0 0
11.3115 0 0
11.3596 0 0
11.3596 0 0
11.4077 0 0
11.4077 0 0
11.4558 0 0
11.4558 0 0
11.5039 0 0
11.5039 0 0
11.552 0 0
11.552 0 0
11.6001 0 0
11.6001 0 0
11.6482 0 0
11.6482 0 0
11.6963 0 0
11.6963 0 0
11.7444 0 0
11.7444 0 0
11.7925 0 0
11.7925 0 0
11.8406 0 0
11.8406 0 0
11.8887 0 0
11.8887 0 0
11.9368 0 0
11.9368 0 0
11.9849 0 0
11.9849 0 0
12.033 0 0
12.033 0 0
12.0811 0 0
12.0811 0 0
12.1292 0 0
12.1292 0 0
12.1772 0 0
12.1772 0 0
12.2253 0 0
12.2253 0 0
12.2734 0 0
12.2734 0 0
12.3215 0 0
12.3215 0 0
12.3696 0 0
12.3696 0 0
12.4177 0 0
12.4177 0 0
12.4658 0 0
12.4658 0 0
12.5139 0 0
12.5139 0 0
12.562 0 0
12.562 0 0
12.6101 0 0
12.6101 0 0
12.6582 0 0
12.6582 0 0
12.7063 0 0
12.7063 0 0
12.7544 0 0
12.7544 0 0
12.8025 0 0
12.8025 0 0
12.8506 0 0
12.8506 0 0
12.8987 0 0
12.8987 0 0
12.9468 0 0
12.9468 0 0
12.9949 0 0
12.9949 0 0
13.043 0 0
13.043 0 0
13.0911 0 0
13.0911 0 0
13.1392 0 0
13.1392 0 0
13.1873 0 0
13.1873 0 0
13.2354 0 0
13.2354 0 0
13.2834 0 0
13.2834 0 0
13.3315 0 0
13.3315 0 0
13.3796 0 0
13.3796 0 0
13.4277 0 0
13.4277 0 0
13.4758 0 0
13.4758 0 0
13.5239 0 0
13.5239 0 0
13.572 0 0
13.572 0 0
13.6201 0 0
13.6201 0 0
13.6682 0 0
13.6682 0 0
13.7163 0 0
13.7163 0 0
13.7644 0 0
13.7644 0 0
13.8125 0 0
13.8125 0 0
13.8606 0 0
13.8606 0 0
13.9087 0 0
13.9087 0 0
13.9568 0 0
13.9568 0 0
14.0049 0 0
14.0049 0 0
14.053 0 0
14.053 0 0
14.1011 0 0
14.1011 0 0
14.1492 0 0
14.1492 0 0
14.1973 0 0
14.1973 0 0
14.2454 0 0
14.2454 0 0
14.2935 0 0
14.2935 0 0
14.3416 0 0
14.3416 0 0
14.3896 0 0
14.3896 0 0
14.4377 0 0
14.4377 0 0
14.4858 0 0
14.4858 0 0
14.5339 0 0
14.5339 0 0
14.582 0 0
14.582 0 0
14.6301 0 0
14.6301 0 0
14.6782 0 0
14.6782 0 0
14.7263 0 0
14.7263 0 0
14.7744 0 0
14.7744 0 0
14.8225 0 0
14.8225 0 0
14.8706 0 0
14.8706 0 0
14.9187 0 0
14.9187 0 0
14.9668 0 0
14.9668 0 0
15.0149 0 0
15.0149 0 0
15.063 0 0
15.063 0 0
15.1111 0 0
15.1111 0 0
15.1592 0 0
15.1592 0 0
15.2073 0 0
15.2073 0 0
15.2554 0 0
15.2554 0 0
15.3035 0 0
15.3035 0 0
15.3516 0 0
15.3516 0 0
15.3997 0 0
15.3997 0 0
15.4478 0 0
15.4478 0 0
15.4958 0 0
15.4958 0 0
15.5439 0 0
15.5439 0 0
15.592 0 0
15.592 0 0
15.6401 0 0
15.6401 0 0
15.6882 0 0
15.6882 0 0
15.7363 0 0
15.7363 0 0
15.7844 0 0
15.7844 0 0
15.8325 0 0
15.8325 0 0
15.8806 0 0
15.8806 0 0
15.9287 0 0
15.9287 0 0
15.9768 0 0
15.9768 0 0
16.0249 0 0
16.0249 0 0
16.073 0 0
16.073 0 0
16.1211 0 0
16.1211 0 0
16.1692 0 0
16.1692 0 0
16.2173 0 0
16.2173 0 0
16.2654 0 0
16.2654 0 0
16.3135 0 0
16.3135 0 0
16.3616 0 0
16.3616 0 0
16.4097 0 0
16.4097 0 0
16.4578 0 0
16.4578 0 0
16.5059 0 0
16.5059 0 0
16.554 0 0
16.554 0 0
16.6021 0 0
16.6021 0 0
16.6501 0 0
16.6501 0 0
16.6982 0 0
16.6982 0 0
16.7463 0 0
16.7463 0 0
16.7944 0 0
16.7944 0 0
16.8425 0 0
16.8425 0 0
16.8906 0 0
16.8906 0 0
16.9387 0 0
16.9387 0 0
16.9868 0 0
16.9868 0 0
17.0349 0 0
17.0349 0 0
17.083 0 0
17.083 0 0
17.1311 0 0
17.1311 0 0
17.1792 0 0
17.1792 0 0
17.2273 0 0
17.2273 0 0
17.2754 0 0
17.2754 0 0
17.3235 0 0
17.3235 0 0
17.3716 0 0
17.3716 0 0
17.4197 0 0
17.4197 0 0
17.4678 0 0
17.4678 0 0
17.5159 0 0
17.5159 0 0
17.564 0 0
17.564 0 0
17.6121 0 0
17.6121 0 0
17.6602 0 0
17.6602 0 0
17.7083 0 0
17.7083 0 0
17.7563 0 0
17.7563 0 0
17.8044 0 0
17.8044 0 0
17.8525 0 0
17.8525 0 0
17.9006 0 0
17.9006 0 0
17.9487 0 0
17.9487 0 0
17.9968 0 0
17.9968 0 0
18.0449 0 0
18.0449 0 0
18.093 0 0
18.093 0 0
18.1411 0 0
18.1411 0 0
18.1892 0 0
18.1892 0 0
18.2373 0 0
18.2373 0 0
18.2854 0 0
18.2854 0 0
18.3335 0 0
18.3335 0 0
18.3816 0 0
18.3816 0 0
18.4297 0 0
18.4297 0 0
18.4778 0 0
18.4778 0 0
18.5259 0 0
18.5259 0 0
18.574 0 0
18.574 0 0
18.6221 0 0
18.6221 0 0
18.6702 0 0
18.6702 0 0
18.7183 0 0
18.7183 0 0
18.7664 0 0
18.7664 0 0
18.8145 0 0
18.8145 0 0
18.8625 0 0
18.8625 0 0
18.9106 0 0
18.9106 0 0
18.9587 0 0
18.9587 0 0
19.0068 0 0
19.0068 0 0
19.0549 0 0
19.0549 0 0
19.103 0 0
19.103 0 0
19.1511 0 0
19.1511 0 0
19.1992 0 0
19.1992 0 0
19.2473 0 0
19.2473 0 0
19.2954 0 0
19.2954 0 0
19.3435 0 0
19.3435 0 0
19.3916 0 0
19.3916 0 0
19.4397 0 0
19.4397 0 0
19.4878 0 0
19.4878 0 0
19.5359 0 0
19.5359 0 0
19.584 0 0
19.584 0 0
19.6321 0 0
19.6321 0 0
19.6802 0 0
19.6802 0 0
19.7283 0 0
19.7283 0 0
19.7764 0 0
19.7764 0 0
19.8245 0 0
19.8245 0 0
19.8726 0 0
19.8726 0 0
19.9207 0 0
19.9207 0 0
19.9688 0 0
19.9688 0 0
20.0168 0 0
20.0168 0 0
20.0649 0 0
20.0649 0 0
20.113 0 0
20.113 0 0
20.1611 0 0
20.1611 0 0
20.2092 0 0
20.2092 0 0
20.2573 0 0
20.2573 0 0
20.3054 0 0
20.3054 0 0
20.3535 0 0
20.3535 0 0
20.4016 0 0
20.4016 0 0
20.4497 0 0
20.4497 0 0
20.4978 0 0
20.4978 0 0
20.5459 0 0
20.5459 0 0
20.594 0 0
20.594 0 0
20.6421 0 0
20.6421 0 0
20.6902 0 0
20.6902 0 0
20.7383 0 0
20.7383 0 0
20.7864 0 0
20.7864 0 0
20.8345 0 0
20.8345 0 0
20.8826 0 0
20.8826 0 0
20.9307 0 0
20.9307 0 0
20.9788 0 0
20.9788 0 0
21.0269 0 0
21.0269 0 0
21.075 0 0
21.075 0 0
21.123 0 0
21.123 0 0
21.1711 0 0
21.1711 0 0
21.2192 0 0
21.2192 0 0
21.2673 0 0
21.2673 0 0
21.3154 0 0
21.3154 0 0
21.3635 0 0
21.3635 0 0
21.4116 0 0
[...]
POINT_DATA 4096
SCALARS solution_0 double 1
LOOKUP_TABLE default
4.24228e+13 4.16027e+13 4.16027e+13 4.08421e+13 4.08421e+13 4.01348e+13 4.01348e+13 3.94754e+13 3.94754e+13 3.8859e+13 3.8859e+13 3.82815e+13 3.82815e+13 3.77392e+13 3.77392e+13 3.72287e+13 3.72287e+13 3.67471e+13 3.67471e+13 3.62919e+13 3.62919e+13 3.58607e+13 3.58607e+13 3.54515e+13 3.54515e+13 3.50623e+13 3.50623e+13 3.46915e+13 3.46915e+13 3.43376e+13 3.43376e+13 3.39993e+13 3.39993e+13 3.36753e+13 3.36753e+13 3.33645e+13 3.33645e+13 3.30659e+13 3.30659e+13 3.27785e+13 3.27785e+13 3.25016e+13 3.25016e+13 3.22344e+13 3.22344e+13 3.19762e+13 3.19762e+13 3.17264e+13 3.17264e+13 3.14844e+13 3.14844e+13 3.12496e+13 3.12496e+13 3.10216e+13 3.10216e+13 3.07999e+13 3.07999e+13 3.05841e+13 3.05841e+13 3.03739e+13 3.03739e+13 3.01688e+13 3.01688e+13 2.99686e+13 2.99686e+13 2.9773e+13 2.9773e+13 2.95816e+13 2.95816e+13 2.93943e+13 2.93943e+13 2.92108e+13 2.92108e+13 2.90309e+13 2.90309e+13 2.88543e+13 2.88543e+13 2.86809e+13 2.86809e+13 2.85106e+13 2.85106e+13 2.83431e+13 2.83431e+13 2.81783e+13 2.81783e+13 2.80161e+13 2.80161e+13 2.78563e+13 2.78563e+13 2.76988e+13 2.76988e+13 2.75435e+13 2.75435e+13 2.73903e+13 2.73903e+13 2.72391e+13 2.72391e+13 2.70898e+13 2.70898e+13 2.69423e+13 2.69423e+13 2.67965e+13 2.67965e+13 2.66524e+13 2.66524e+13 2.65098e+13 2.65098e+13 2.63688e+13 2.63688e+13 2.62292e+13 2.62292e+13 2.6091e+13 2.6091e+13 2.59542e+13 2.59542e+13 2.58186e+13 2.58186e+13 2.56843e+13 2.56843e+13 2.55511e+13 2.55511e+13 2.54192e+13 2.54192e+13 2.52883e+13 2.52883e+13 2.51585e+13 2.51585e+13 2.50297e+13 2.50297e+13 2.4902e+13 2.4902e+13 2.47752e+13 2.47752e+13 2.46494e+13 2.46494e+13 2.45244e+13 2.45244e+13 2.44004e+13 2.44004e+13 2.42772e+13 2.42772e+13 2.41549e+13 2.41549e+13 2.40334e+13 2.40334e+13 2.39127e+13 2.39127e+13 2.37927e+13 2.37927e+13 2.36735e+13 2.36735e+13 2.35551e+13 2.35551e+13 2.34374e+13 2.34374e+13 2.33204e+13 2.33204e+13 2.32041e+13 2.32041e+13 2.30885e+13 2.30885e+13 2.29735e+13 2.29735e+13 2.28592e+13 2.28592e+13 2.27456e+13 2.27456e+13 2.26325e+13 2.26325e+13 2.25201e+13 2.25201e+13 2.24084e+13 2.24084e+13 2.22972e+13 2.22972e+13 2.21866e+13 2.21866e+13 2.20766e+13 2.20766e+13 2.19671e+13 2.19671e+13 2.18583e+13 2.18583e+13 2.175e+13 2.175e+13 2.16422e+13 2.16422e+13 2.1535e+13 2.1535e+13 2.14284e+13 2.14284e+13 2.13223e+13 2.13223e+13 2.12167e+13 2.12167e+13 2.11116e+13 2.11116e+13 2.10071e+13 2.10071e+13 2.09031e+13 2.09031e+13 2.07996e+13 2.07996e+13 2.06965e+13 2.06965e+13 2.0594e+13 2.0594e+13 2.0492e+13 2.0492e+13 2.03905e+13 2.03905e+13 2.02895e+13 2.02895e+13 2.01889e+13 2.01889e+13 2.00889e+13 2.00889e+13 1.99893e+13 1.99893e+13 1.98902e+13 1.98902e+13 1.97916e+13 1.97916e+13 1.96934e+13 1.96934e+13 1.95957e+13 1.95957e+13 1.94985e+13 1.94985e+13 1.94017e+13 1.94017e+13 1.93054e+13 1.93054e+13 1.92095e+13 1.92095e+13 1.91141e+13 1.91141e+13 1.90192e+13 1.90192e+13 1.89247e+13 1.89247e+13 1.88306e+13 1.88306e+13 1.8737e+13 1.8737e+13 1.86438e+13 1.86438e+13 1.85511e+13 1.85511e+13 1.84588e+13 1.84588e+13 1.8367e+13 1.8367e+13 1.82756e+13 1.82756e+13 1.81846e+13 1.81846e+13 1.8094e+13 1.8094e+13 1.80039e+13 1.80039e+13 1.79142e+13 1.79142e+13 1.78249e+13 1.78249e+13 1.77361e+13 1.77361e+13 1.76477e+13 1.76477e+13 1.75596e+13 1.75596e+13 1.74721e+13 1.74721e+13 1.73849e+13 1.73849e+13 1.72981e+13 1.72981e+13 1.72118e+13 1.72118e+13 1.71259e+13 1.71259e+13 1.70404e+13 1.70404e+13 1.69553e+13 1.69553e+13 1.68706e+13 1.68706e+13 1.67863e+13 1.67863e+13 1.67024e+13 1.67024e+13 1.66189e+13 1.66189e+13 1.65358e+13 1.65358e+13 1.64532e+13 1.64532e+13 1.63709e+13 1.63709e+13 1.6289e+13 1.6289e+13 1.62075e+13 1.62075e+13 1.61264e+13 1.61264e+13 1.60457e+13 1.60457e+13 1.59654e+13 1.59654e+13 1.58855e+13 1.58855e+13 1.5806e+13 1.5806e+13 1.57269e+13 1.57269e+13 1.56481e+13 1.56481e+13 1.55698e+13 1.55698e+13 1.54918e+13 1.54918e+13 1.54142e+13 1.54142e+13 1.5337e+13 1.5337e+13 1.52601e+13 1.52601e+13 1.51837e+13 1.51837e+13 1.51076e+13 1.51076e+13 1.50319e+13 1.50319e+13 1.49565e+13 1.49565e+13 1.48816e+13 1.48816e+13 1.4807e+13 1.4807e+13 1.47328e+13 1.47328e+13 1.46589e+13 1.46589e+13 1.45854e+13 1.45854e+13 1.45123e+13 1.45123e+13 1.44395e+13 1.44395e+13 1.43672e+13 1.43672e+13 1.42951e+13 1.42951e+13 1.42234e+13 1.42234e+13 1.41521e+13 1.41521e+13 1.40812e+13 1.40812e+13 1.40106e+13 1.40106e+13 1.39403e+13 1.39403e+13 1.38704e+13 1.38704e+13 1.38009e+13 1.38009e+13 1.37317e+13 1.37317e+13 1.36628e+13 1.36628e+13 1.35943e+13 1.35943e+13 1.35262e+13 1.35262e+13 1.34584e+13 1.34584e+13 1.33909e+13 1.33909e+13 1.33238e+13 1.33238e+13 1.3257e+13 1.3257e+13 1.31905e+13 1.31905e+13 1.31244e+13 1.31244e+13 1.30587e+13 1.30587e+13 1.29932e+13 1.29932e+13 1.29281e+13 1.29281e+13 1.28633e+13 1.28633e+13 1.27989e+13 1.27989e+13 1.27348e+13 1.27348e+13 1.2671e+13 1.2671e+13 1.26075e+13 1.26075e+13 1.25444e+13 1.25444e+13 1.24815e+13 1.24815e+13 1.2419e+13 1.2419e+13 1.23569e+13 1.23569e+13 1.2295e+13 1.2295e+13 1.22335e+13 1.22335e+13 1.21722e+13 1.21722e+13 1.21113e+13 1.21113e+13 1.20507e+13 1.20507e+13 1.19904e+13 1.19904e+13 1.19305e+13 1.19305e+13 1.18708e+13 1.18708e+13 1.18114e+13 1.18114e+13 1.17524e+13 1.17524e+13 1.16936e+13 1.16936e+13 1.16352e+13 1.16352e+13 1.1577e+13 1.1577e+13 1.15192e+13 1.15192e+13 1.14616e+13 1.14616e+13 1.14044e+13 1.14044e+13 1.13474e+13 1.13474e+13 1.12908e+13 1.12908e+13 1.12344e+13 1.12344e+13 1.11783e+13 1.11783e+13 1.11225e+13 1.11225e+13 1.1067e+13 1.1067e+13 1.10118e+13 1.10118e+13 1.09569e+13 1.09569e+13 1.09023e+13 1.09023e+13 1.08479e+13 1.08479e+13 1.07939e+13 1.07939e+13 1.07401e+13 1.07401e+13 1.06865e+13 1.06865e+13 1.06333e+13 1.06333e+13 1.05804e+13 1.05804e+13 1.05277e+13 1.05277e+13 1.04753e+13 1.04753e+13 1.04231e+13 1.04231e+13 1.03713e+13 1.03713e+13 1.03197e+13 1.03197e+13 1.02683e+13 1.02683e+13 1.02173e+13 1.02173e+13 1.01665e+13 1.01665e+13 1.0116e+13 1.0116e+13 1.00657e+13 1.00657e+13 1.00157e+13 1.00157e+13 9.96594e+12 9.96594e+12 9.91645e+12 9.91645e+12 9.86722e+12 9.86722e+12 9.81825e+12 9.81825e+12 9.76954e+12 9.76954e+12 9.72107e+12 9.72107e+12 9.67286e+12 9.67286e+12 9.6249e+12 9.6249e+12 9.5772e+12 9.5772e+12 9.52973e+12 9.52973e+12 9.48252e+12 9.48252e+12 9.43555e+12 9.43555e+12 9.38883e+12 9.38883e+12 9.34235e+12 9.34235e+12 9.29612e+12 9.29612e+12 9.25012e+12 9.25012e+12 9.20437e+12 9.20437e+12 9.15885e+12 9.15885e+12 9.11357e+12 9.11357e+12 9.06853e+12 9.06853e+12 9.02372e+12 9.02372e+12 8.97914e+12 8.97914e+12 8.9348e+12 8.9348e+12 8.89068e+12 8.89068e+12 8.8468e+12 8.8468e+12 8.80315e+12 8.80315e+12 8.75972e+12 8.75972e+12 8.71652e+12 8.71652e+12 8.67354e+12 8.67354e+12 8.63079e+12 8.63079e+12 8.58826e+12 8.58826e+12 8.54595e+12 8.54595e+12 8.50386e+12 8.50386e+12 8.46199e+12 8.46199e+12 8.42034e+12 8.42034e+12 8.37891e+12 8.37891e+12 8.33769e+12 8.33769e+12 8.29668e+12 8.29668e+12 8.25589e+12 8.25589e+12 8.21531e+12 8.21531e+12 8.17494e+12 8.17494e+12 8.13478e+12 8.13478e+12 8.09483e+12 8.09483e+12 8.05508e+12 8.05508e+12 8.01554e+12 8.01554e+12 7.97621e+12 7.97621e+12 7.93708e+12 7.93708e+12 7.89816e+12 7.89816e+12 7.85943e+12 7.85943e+12 7.82091e+12 7.82091e+12 7.78258e+12 7.78258e+12 7.74446e+12 7.74446e+12 7.70653e+12 7.70653e+12 7.6688e+12 7.6688e+12 7.63126e+12 7.63126e+12 7.59392e+12 7.59392e+12 7.55677e+12 7.55677e+12 7.51981e+12 7.51981e+12 7.48304e+12 7.48304e+12 7.44646e+12 7.44646e+12 7.41008e+12 7.41008e+12 7.37388e+12 7.37388e+12 7.33786e+12 7.33786e+12 7.30203e+12 7.30203e+12 7.26639e+12 7.26639e+12 7.23093e+12 7.23093e+12 7.19565e+12 7.19565e+12 7.16056e+12 7.16056e+12 7.12564e+12 7.12564e+12 7.09091e+12 7.09091e+12 7.05635e+12 7.05635e+12 7.02197e+12 7.02197e+12 6.98777e+12 6.98777e+12 6.95374e+12 6.95374e+12 6.91989e+12 6.91989e+12 6.88621e+12 6.88621e+12 6.8527e+12 6.8527e+12 6.81937e+12 6.81937e+12 6.7862e+12 6.7862e+12 6.75321e+12 6.75321e+12 6.72038e+12 6.72038e+12 6.68772e+12 6.68772e+12 6.65523e+12 6.65523e+12 6.62291e+12 6.62291e+12 6.59075e+12 6.59075e+12 6.55875e+12 6.55875e+12 6.52692e+12 6.52692e+12 6.49525e+12 6.49525e+12 6.46374e+12 6.46374e+12 6.4324e+12 6.4324e+12 6.40121e+12 6.40121e+12 6.37018e+12 6.37018e+12 6.3393e+12 6.3393e+12 6.30859e+12 6.30859e+12 6.27803e+12 6.27803e+12 6.24762e+12 6.24762e+12 6.21738e+12 6.21738e+12 6.18728e+12 6.18728e+12 6.15733e+12 6.15733e+12 6.12754e+12 6.12754e+12 6.0979e+12 6.0979e+12 6.06841e+12 6.06841e+12 6.03906e+12 6.03906e+12 6.00987e+12 6.00987e+12 5.98082e+12 5.98082e+12 5.95192e+12 5.95192e+12 5.92317e+12 5.92317e+12 5.89456e+12 5.89456e+12 5.86609e+12 5.86609e+12 5.83777e+12 5.83777e+12 5.80959e+12 5.80959e+12 5.78155e+12 5.78155e+12 5.75365e+12 5.75365e+12 5.7259e+12 5.7259e+12 5.69828e+12 5.69828e+12 5.6708e+12 5.6708e+12 5.64345e+12 5.64345e+12 5.61625e+12 5.61625e+12 5.58918e+12 5.58918e+12 5.56225e+12 5.56225e+12 5.53545e+12 5.53545e+12 5.50878e+12 5.50878e+12 5.48225e+12 5.48225e+12 5.45585e+12 5.45585e+12 5.42958e+12 5.42958e+12 5.40344e+12 5.40344e+12 5.37743e+12 5.37743e+12 5.35156e+12 5.35156e+12 5.32581e+12 5.32581e+12 5.30019e+12 5.30019e+12 5.27469e+12 5.27469e+12 5.24932e+12 5.24932e+12 5.22408e+12 5.22408e+12 5.19896e+12 5.19896e+12 5.17397e+12 5.17397e+12 5.1491e+12 5.1491e+12 5.12435e+12 5.12435e+12 5.09973e+12 5.09973e+12 5.07523e+12 5.07523e+12 5.05084e+12 5.05084e+12 5.02658e+12 5.02658e+12 5.00244e+12 5.00244e+12 4.97841e+12 4.97841e+12 4.95451e+12 4.95451e+12 4.93072e+12 4.93072e+12 4.90705e+12 4.90705e+12 4.88349e+12 4.88349e+12 4.86005e+12 4.86005e+12 4.83673e+12 4.83673e+12 4.81352e+12 4.81352e+12 4.79042e+12 4.79042e+12 4.76744e+12 4.76744e+12 4.74456e+12 4.74456e+12 4.7218e+12 4.7218e+12 4.69915e+12 4.69915e+12 4.67661e+12 4.67661e+12 4.65418e+12 4.65418e+12 4.63186e+12 4.63186e+12 4.60965e+12 4.60965e+12 4.58755e+12 4.58755e+12 4.56555e+12 4.56555e+12 4.54366e+12 4.54366e+12 4.52187e+12 4.52187e+12 4.50019e+12 4.50019e+12 4.47862e+12 4.47862e+12 4.45715e+12 4.45715e+12 4.43578e+12 4.43578e+12 4.41452e+12 4.41452e+12 4.39336e+12 4.39336e+12 4.3723e+12 4.3723e+12 4.35134e+12 4.35134e+12 4.33049e+12 4.33049e+12 4.30973e+12 4.30973e+12 4.28908e+12 4.28908e+12 4.26852e+12 4.26852e+12 4.24806e+12 4.24806e+12 4.2277e+12 4.2277e+12 4.20743e+12 4.20743e+12 4.18727e+12 4.18727e+12 4.1672e+12 4.1672e+12 4.14722e+12 4.14722e+12 4.12734e+12 4.12734e+12 4.10756e+12 4.10756e+12 4.08787e+12 4.08787e+12 4.06827e+12 4.06827e+12 4.04877e+12 4.04877e+12 4.02936e+12 4.02936e+12 4.01004e+12 4.01004e+12 3.99081e+12 3.99081e+12 3.97168e+12 3.97168e+12 3.95263e+12 3.95263e+12 3.93368e+12 3.93368e+12 3.91481e+12 3.91481e+12 3.89604e+12 3.89604e+12 3.87735e+12 3.87735e+12 3.85875e+12 3.85875e+12 3.84024e+12 3.84024e+12 3.82181e+12 3.82181e+12 3.80347e+12 3.80347e+12 3.78522e+12 3.78522e+12 3.76706e+12 3.76706e+12 3.74898e+12 3.74898e+12 3.73098e+12 3.73098e+12 3.71307e+12 3.71307e+12 3.69524e+12 3.69524e+12 3.67749e+12 3.67749e+12 3.65983e+12 3.65983e+12 3.64225e+12 3.64225e+12 3.62475e+12 3.62475e+12 3.60734e+12 3.60734e+12 3.59e+12 3.59e+12 3.57275e+12 3.57275e+12 3.55557e+12 3.55557e+12 3.53848e+12 3.53848e+12 3.52146e+12 3.52146e+12 3.50453e+12 3.50453e+12 3.48767e+12 3.48767e+12 3.47089e+12 3.47089e+12 3.45418e+12 3.45418e+12 3.43756e+12 3.43756e+12 3.42101e+12 3.42101e+12 3.40454e+12 3.40454e+12 3.38814e+12 3.38814e+12 3.37182e+12 3.37182e+12 3.35557e+12 3.35557e+12 3.3394e+12 3.3394e+12 3.3233e+12 3.3233e+12 3.30728e+12 3.30728e+12 3.29133e+12 3.29133e+12 3.27545e+12 3.27545e+12 3.25965e+12 3.25965e+12 3.24391e+12 3.24391e+12 3.22825e+12 3.22825e+12 3.21266e+12 3.21266e+12 3.19715e+12 3.19715e+12 3.1817e+12 3.1817e+12 3.16632e+12 3.16632e+12 3.15101e+12 3.15101e+12 3.13578e+12 3.13578e+12 3.12061e+12 3.12061e+12 3.10551e+12 3.10551e+12 3.09047e+12 3.09047e+12 3.07551e+12 3.07551e+12 3.06062e+12 3.06062e+12 3.04579e+12 3.04579e+12 3.03102e+12 3.03102e+12 3.01633e+12 3.01633e+12 3.0017e+12 3.0017e+12 2.98714e+12 2.98714e+12 2.97264e+12 2.97264e+12 2.9582e+12 2.9582e+12 2.94384e+12 2.94384e+12 2.92953e+12 2.92953e+12 2.91529e+12 2.91529e+12 2.90112e+12 2.90112e+12 2.887e+12 2.887e+12 2.87296e+12 2.87296e+12 2.85897e+12 2.85897e+12 2.84504e+12 2.84504e+12 2.83118e+12 2.83118e+12 2.81738e+12 2.81738e+12 2.80364e+12 2.80364e+12 2.78996e+12 2.78996e+12 2.77635e+12 2.77635e+12 2.76279e+12 2.76279e+12 2.74929e+12 2.74929e+12 2.73585e+12 2.73585e+12 2.72248e+12 2.72248e+12 2.70916e+12 2.70916e+12 2.6959e+12 2.6959e+12 2.6827e+12 2.6827e+12 2.66955e+12 2.66955e+12 2.65647e+12 2.65647e+12 2.64344e+12 2.64344e+12 2.63047e+12 2.63047e+12 2.61755e+12 2.61755e+12 2.6047e+12 2.6047e+12 2.5919e+12 2.5919e+12 2.57915e+12 2.57915e+12 2.56646e+12 2.56646e+12 2.55383e+12 2.55383e+12 2.54125e+12 2.54125e+12 2.52873e+12 2.52873e+12 2.51626e+12 2.51626e+12 2.50384e+12 2.50384e+12 2.49148e+12 2.49148e+12 2.47917e+12 2.47917e+12 2.46692e+12 2.46692e+12 2.45472e+12 2.45472e+12 2.44257e+12 2.44257e+12 2.43048e+12 2.43048e+12 2.41844e+12 2.41844e+12 2.40644e+12 2.40644e+12 2.39451e+12 2.39451e+12 2.38262e+12 2.38262e+12 2.37078e+12 2.37078e+12 2.359e+12 2.359e+12 2.34726e+12 2.34726e+12 2.33558e+12 2.33558e+12 2.32395e+12 2.32395e+12 2.31236e+12 2.31236e+12 2.30083e+12 2.30083e+12 2.28934e+12 2.28934e+12 2.27791e+12 2.27791e+12 2.26652e+12 2.26652e+12 2.25518e+12 2.25518e+12 2.24389e+12 2.24389e+12 2.23265e+12 2.23265e+12 2.22146e+12 2.22146e+12 2.21031e+12 2.21031e+12 2.19922e+12 2.19922e+12 2.18816e+12 2.18816e+12 2.17716e+12 2.17716e+12 2.1662e+12 2.1662e+12 2.15529e+12 2.15529e+12 2.14443e+12 2.14443e+12 2.13361e+12 2.13361e+12 2.12283e+12 2.12283e+12 2.1121e+12 2.1121e+12 2.10142e+12 2.10142e+12 2.09078e+12 2.09078e+12 2.08019e+12 2.08019e+12 2.06964e+12 2.06964e+12 2.05914e+12 2.05914e+12 2.04868e+12 2.04868e+12 2.03826e+12 2.03826e+12 2.02789e+12 2.02789e+12 2.01756e+12 2.01756e+12 2.00728e+12 2.00728e+12 1.99703e+12 1.99703e+12 1.98683e+12 1.98683e+12 1.97668e+12 1.97668e+12 1.96656e+12 1.96656e+12 1.95649e+12 1.95649e+12 1.94646e+12 1.94646e+12 1.93647e+12 1.93647e+12 1.92652e+12 1.92652e+12 1.91661e+12 1.91661e+12 1.90675e+12 1.90675e+12 1.89692e+12 1.89692e+12 1.88714e+12 1.88714e+12 1.8774e+12 1.8774e+12 1.86769e+12 1.86769e+12 1.85803e+12 1.85803e+12 1.84841e+12 1.84841e+12 1.83882e+12 1.83882e+12 1.82928e+12 1.82928e+12 1.81977e+12 1.81977e+12 1.81031e+12 1.81031e+12 1.80088e+12 1.80088e+12 1.79149e+12 1.79149e+12 1.78214e+12 1.78214e+12 1.77283e+12 1.77283e+12 1.76356e+12 1.76356e+12 1.75432e+12 1.75432e+12 1.74513e+12 1.74513e+12 1.73596e+12 1.73596e+12 1.72684e+12 1.72684e+12 1.71776e+12 1.71776e+12 1.70871e+12 1.70871e+12 1.6997e+12 1.6997e+12 1.69072e+12 1.69072e+12 1.68178e+12 1.68178e+12 1.67288e+12 1.67288e+12 1.66401e+12 1.66401e+12 1.65518e+12 1.65518e+12 1.64639e+12 1.64639e+12 1.63763e+12 1.63763e+12 1.6289e+12 1.6289e+12 1.62021e+12 1.62021e+12 1.61156e+12 1.61156e+12 1.60294e+12 1.60294e+12 1.59436e+12 1.59436e+12 1.58581e+12 1.58581e+12 1.57729e+12 1.57729e+12 1.56881e+12 1.56881e+12 1.56036e+12 1.56036e+12 1.55195e+12 1.55195e+12 1.54357e+12 1.54357e+12 1.53522e+12 1.53522e+12 1.52691e+12 1.52691e+12 1.51863e+12 1.51863e+12 1.51038e+12 1.51038e+12 1.50217e+12 1.50217e+12 1.49399e+12 1.49399e+12 1.48584e+12 1.48584e+12 1.47772e+12 1.47772e+12 1.46964e+12 1.46964e+12 1.46159e+12 1.46159e+12 1.45357e+12 1.45357e+12 1.44558e+12 1.44558e+12 1.43762e+12 1.43762e+12 1.4297e+12 1.4297e+12 1.4218e+12 1.4218e+12 1.41394e+12 1.41394e+12 1.40611e+12 1.40611e+12 1.39831e+12 1.39831e+12 1.39054e+12 1.39054e+12 1.3828e+12 1.3828e+12 1.37509e+12 1.37509e+12 1.36741e+12 1.36741e+12 1.35976e+12 1.35976e+12 1.35214e+12 1.35214e+12 1.34455e+12 1.34455e+12 1.337e+12 1.337e+12 1.32947e+12 1.32947e+12 1.32197e+12 1.32197e+12 1.3145e+12 1.3145e+12 1.30705e+12 1.30705e+12 1.29964e+12 1.29964e+12 1.29226e+12 1.29226e+12 1.2849e+12 1.2849e+12 1.27758e+12 1.27758e+12 1.27028e+12 1.27028e+12 1.26301e+12 1.26301e+12 1.25577e+12 1.25577e+12 1.24855e+12 1.24855e+12 1.24137e+12 1.24137e+12 1.23421e+12 1.23421e+12 1.22708e+12 1.22708e+12 1.21998e+12 1.21998e+12 1.2129e+12 1.2129e+12 1.20585e+12 1.20585e+12 1.19883e+12 1.19883e+12 1.19184e+12 1.19184e+12 1.18487e+12 1.18487e+12 1.17793e+12 1.17793e+12 1.17102e+12 1.17102e+12 1.16413e+12 1.16413e+12 1.15727e+12 1.15727e+12 1.15044e+12 1.15044e+12 1.14363e+12 1.14363e+12 1.13685e+12 1.13685e+12 1.13009e+12 1.13009e+12 1.12336e+12 1.12336e+12 1.11666e+12 1.11666e+12 1.10998e+12 1.10998e+12 1.10332e+12 1.10332e+12 1.0967e+12 1.0967e+12 1.09009e+12 1.09009e+12 1.08351e+12 1.08351e+12 1.07696e+12 1.07696e+12 1.07043e+12 1.07043e+12 1.06393e+12 1.06393e+12 1.05745e+12 1.05745e+12 1.051e+12 1.051e+12 1.04457e+12 1.04457e+12 1.03816e+12 1.03816e+12 1.03178e+12 1.03178e+12 1.02542e+12 1.02542e+12 1.01909e+12 1.01909e+12 1.01278e+12 1.01278e+12 1.00649e+12 1.00649e+12 1.00023e+12 1.00023e+12 9.93994e+11 9.93994e+11 9.87779e+11 9.87779e+11 9.81587e+11 9.81587e+11 9.75418e+11 9.75418e+11 9.69272e+11 9.69272e+11 9.6315e+11 9.6315e+11 9.5705e+11 9.5705e+11 9.50973e+11 9.50973e+11 9.44919e+11 9.44919e+11 9.38887e+11 9.38887e+11 9.32878e+11 9.32878e+11 9.26892e+11 9.26892e+11 9.20927e+11 9.20927e+11 9.14985e+11 9.14985e+11 9.09065e+11 9.09065e+11 9.03166e+11 9.03166e+11 8.9729e+11 8.9729e+11 8.91435e+11 8.91435e+11 8.85603e+11 8.85603e+11 8.79791e+11 8.79791e+11 8.74001e+11 8.74001e+11 8.68233e+11 8.68233e+11 8.62486e+11 8.62486e+11 8.5676e+11 8.5676e+11 8.51055e+11 8.51055e+11 8.45372e+11 8.45372e+11 8.39709e+11 8.39709e+11 8.34067e+11 8.34067e+11 8.28445e+11 8.28445e+11 8.22845e+11 8.22845e+11 8.17265e+11 8.17265e+11 8.11705e+11 8.11705e+11 8.06166e+11 8.06166e+11 8.00647e+11 8.00647e+11 7.95148e+11 7.95148e+11 7.8967e+11 7.8967e+11 7.84211e+11 7.84211e+11 7.78772e+11 7.78772e+11 7.73354e+11 7.73354e+11 7.67954e+11 7.67954e+11 7.62575e+11 7.62575e+11 7.57215e+11 7.57215e+11 7.51875e+11 7.51875e+11 7.46554e+11 7.46554e+11 7.41252e+11 7.41252e+11 7.3597e+11 7.3597e+11 7.30707e+11 7.30707e+11 7.25463e+11 7.25463e+11 7.20237e+11 7.20237e+11 7.15031e+11 7.15031e+11 7.09844e+11 7.09844e+11 7.04675e+11 7.04675e+11 6.99525e+11 6.99525e+11 6.94394e+11 6.94394e+11 6.89281e+11 6.89281e+11 6.84186e+11 6.84186e+11 6.7911e+11 6.7911e+11 6.74052e+11 6.74052e+11 6.69012e+11 6.69012e+11 6.63991e+11 6.63991e+11 6.58987e+11 6.58987e+11 6.54002e+11 6.54002e+11 6.49034e+11 6.49034e+11 6.44084e+11 6.44084e+11 6.39152e+11 6.39152e+11 6.34237e+11 6.34237e+11 6.2934e+11 6.2934e+11 6.2446e+11 6.2446e+11 6.19598e+11 6.19598e+11 6.14753e+11 6.14753e+11 6.09926e+11 6.09926e+11 6.05115e+11 6.05115e+11 6.00322e+11 6.00322e+11 5.95546e+11 5.95546e+11 5.90787e+11 5.90787e+11 5.86045e+11 5.86045e+11 5.81319e+11 5.81319e+11 5.7661e+11 5.7661e+11 5.71918e+11 5.71918e+11 5.67243e+11 5.67243e+11 5.62584e+11 5.62584e+11 5.57942e+11 5.57942e+11 5.53316e+11 5.53316e+11 5.48706e+11 5.48706e+11 5.44113e+11 5.44113e+11 5.39536e+11 5.39536e+11 5.34975e+11 5.34975e+11 5.3043e+11 5.3043e+11 5.25901e+11 5.25901e+11 5.21388e+11 5.21388e+11 5.1689e+11 5.1689e+11 5.12409e+11 5.12409e+11 5.07943e+11 5.07943e+11 5.03493e+11 5.03493e+11 4.99059e+11 4.99059e+11 4.9464e+11 4.9464e+11 4.90237e+11 4.90237e+11 4.85849e+11 4.85849e+11 4.81476e+11 4.81476e+11 4.77119e+11 4.77119e+11 4.72776e+11 4.72776e+11 4.68449e+11 4.68449e+11 4.64138e+11 4.64138e+11 4.59841e+11 4.59841e+11 4.55559e+11 4.55559e+11 4.51292e+11 4.51292e+11 4.47039e+11 4.47039e+11 4.42802e+11 4.42802e+11 4.38579e+11 4.38579e+11 4.34371e+11 4.34371e+11 4.30178e+11 4.30178e+11 4.25999e+11 4.25999e+11 4.21834e+11 4.21834e+11 4.17684e+11 4.17684e+11 4.13549e+11 4.13549e+11 4.09427e+11 4.09427e+11 4.0532e+11 4.0532e+11 4.01227e+11 4.01227e+11 3.97148e+11 3.97148e+11 3.93083e+11 3.93083e+11 3.89033e+11 3.89033e+11 3.84996e+11 3.84996e+11 3.80973e+11 3.80973e+11 3.76964e+11 3.76964e+11 3.72968e+11 3.72968e+11 3.68987e+11 3.68987e+11 3.65019e+11 3.65019e+11 3.61064e+11 3.61064e+11 3.57123e+11 3.57123e+11 3.53196e+11 3.53196e+11 3.49282e+11 3.49282e+11 3.45382e+11 3.45382e+11 3.41495e+11 3.41495e+11 3.37621e+11 3.37621e+11 3.3376e+11 3.3376e+11 3.29913e+11 3.29913e+11 3.26078e+