# vtk DataFile Version 3.0
#This file was generated by the deal.II library on 2020/9/6 at 3:47:38
ASCII
DATASET UNSTRUCTURED_GRID

POINTS 4096 double
1.5 0 0
1.5481 0 0
1.5481 0 0
1.59619 0 0
1.59619 0 0
1.64429 0 0
1.64429 0 0
1.69238 0 0
1.69238 0 0
1.74048 0 0
1.74048 0 0
1.78857 0 0
1.78857 0 0
1.83667 0 0
1.83667 0 0
1.88477 0 0
1.88477 0 0
1.93286 0 0
1.93286 0 0
1.98096 0 0
1.98096 0 0
2.02905 0 0
2.02905 0 0
2.07715 0 0
2.07715 0 0
2.12524 0 0
2.12524 0 0
2.17334 0 0
2.17334 0 0
2.22144 0 0
2.22144 0 0
2.26953 0 0
2.26953 0 0
2.31763 0 0
2.31763 0 0
2.36572 0 0
2.36572 0 0
2.41382 0 0
2.41382 0 0
2.46191 0 0
2.46191 0 0
2.51001 0 0
2.51001 0 0
2.55811 0 0
2.55811 0 0
2.6062 0 0
2.6062 0 0
2.6543 0 0
2.6543 0 0
2.70239 0 0
2.70239 0 0
2.75049 0 0
2.75049 0 0
2.79858 0 0
2.79858 0 0
2.84668 0 0
2.84668 0 0
2.89478 0 0
2.89478 0 0
2.94287 0 0
2.94287 0 0
2.99097 0 0
2.99097 0 0
3.03906 0 0
3.03906 0 0
3.08716 0 0
3.08716 0 0
3.13525 0 0
3.13525 0 0
3.18335 0 0
3.18335 0 0
3.23145 0 0
3.23145 0 0
3.27954 0 0
3.27954 0 0
3.32764 0 0
3.32764 0 0
3.37573 0 0
3.37573 0 0
3.42383 0 0
3.42383 0 0
3.47192 0 0
3.47192 0 0
3.52002 0 0
3.52002 0 0
3.56812 0 0
3.56812 0 0
3.61621 0 0
3.61621 0 0
3.66431 0 0
3.66431 0 0
3.7124 0 0
3.7124 0 0
3.7605 0 0
3.7605 0 0
3.80859 0 0
3.80859 0 0
3.85669 0 0
3.85669 0 0
3.90479 0 0
3.90479 0 0
3.95288 0 0
3.95288 0 0
4.00098 0 0
4.00098 0 0
4.04907 0 0
4.04907 0 0
4.09717 0 0
4.09717 0 0
4.14526 0 0
4.14526 0 0
4.19336 0 0
4.19336 0 0
4.24146 0 0
4.24146 0 0
4.28955 0 0
4.28955 0 0
4.33765 0 0
4.33765 0 0
4.38574 0 0
4.38574 0 0
4.43384 0 0
4.43384 0 0
4.48193 0 0
4.48193 0 0
4.53003 0 0
4.53003 0 0
4.57812 0 0
4.57812 0 0
4.62622 0 0
4.62622 0 0
4.67432 0 0
4.67432 0 0
4.72241 0 0
4.72241 0 0
4.77051 0 0
4.77051 0 0
4.8186 0 0
4.8186 0 0
4.8667 0 0
4.8667 0 0
4.91479 0 0
4.91479 0 0
4.96289 0 0
4.96289 0 0
5.01099 0 0
5.01099 0 0
5.05908 0 0
5.05908 0 0
5.10718 0 0
5.10718 0 0
5.15527 0 0
5.15527 0 0
5.20337 0 0
5.20337 0 0
5.25146 0 0
5.25146 0 0
5.29956 0 0
5.29956 0 0
5.34766 0 0
5.34766 0 0
5.39575 0 0
5.39575 0 0
5.44385 0 0
5.44385 0 0
5.49194 0 0
5.49194 0 0
5.54004 0 0
5.54004 0 0
5.58813 0 0
5.58813 0 0
5.63623 0 0
5.63623 0 0
5.68433 0 0
5.68433 0 0
5.73242 0 0
5.73242 0 0
5.78052 0 0
5.78052 0 0
5.82861 0 0
5.82861 0 0
5.87671 0 0
5.87671 0 0
5.9248 0 0
5.9248 0 0
5.9729 0 0
5.9729 0 0
6.021 0 0
6.021 0 0
6.06909 0 0
6.06909 0 0
6.11719 0 0
6.11719 0 0
6.16528 0 0
6.16528 0 0
6.21338 0 0
6.21338 0 0
6.26147 0 0
6.26147 0 0
6.30957 0 0
6.30957 0 0
6.35767 0 0
6.35767 0 0
6.40576 0 0
6.40576 0 0
6.45386 0 0
6.45386 0 0
6.50195 0 0
6.50195 0 0
6.55005 0 0
6.55005 0 0
6.59814 0 0
6.59814 0 0
6.64624 0 0
6.64624 0 0
6.69434 0 0
6.69434 0 0
6.74243 0 0
6.74243 0 0
6.79053 0 0
6.79053 0 0
6.83862 0 0
6.83862 0 0
6.88672 0 0
6.88672 0 0
6.93481 0 0
6.93481 0 0
6.98291 0 0
6.98291 0 0
7.03101 0 0
7.03101 0 0
7.0791 0 0
7.0791 0 0
7.1272 0 0
7.1272 0 0
7.17529 0 0
7.17529 0 0
7.22339 0 0
7.22339 0 0
7.27148 0 0
7.27148 0 0
7.31958 0 0
7.31958 0 0
7.36768 0 0
7.36768 0 0
7.41577 0 0
7.41577 0 0
7.46387 0 0
7.46387 0 0
7.51196 0 0
7.51196 0 0
7.56006 0 0
7.56006 0 0
7.60815 0 0
7.60815 0 0
7.65625 0 0
7.65625 0 0
7.70435 0 0
7.70435 0 0
7.75244 0 0
7.75244 0 0
7.80054 0 0
7.80054 0 0
7.84863 0 0
7.84863 0 0
7.89673 0 0
7.89673 0 0
7.94482 0 0
7.94482 0 0
7.99292 0 0
7.99292 0 0
8.04102 0 0
8.04102 0 0
8.08911 0 0
8.08911 0 0
8.13721 0 0
8.13721 0 0
8.1853 0 0
8.1853 0 0
8.2334 0 0
8.2334 0 0
8.28149 0 0
8.28149 0 0
8.32959 0 0
8.32959 0 0
8.37769 0 0
8.37769 0 0
8.42578 0 0
8.42578 0 0
8.47388 0 0
8.47388 0 0
8.52197 0 0
8.52197 0 0
8.57007 0 0
8.57007 0 0
8.61816 0 0
8.61816 0 0
8.66626 0 0
8.66626 0 0
8.71436 0 0
8.71436 0 0
8.76245 0 0
8.76245 0 0
8.81055 0 0
8.81055 0 0
8.85864 0 0
8.85864 0 0
8.90674 0 0
8.90674 0 0
8.95483 0 0
8.95483 0 0
9.00293 0 0
9.00293 0 0
9.05103 0 0
9.05103 0 0
9.09912 0 0
9.09912 0 0
9.14722 0 0
9.14722 0 0
9.19531 0 0
9.19531 0 0
9.24341 0 0
9.24341 0 0
9.2915 0 0
9.2915 0 0
9.3396 0 0
9.3396 0 0
9.3877 0 0
9.3877 0 0
9.43579 0 0
9.43579 0 0
9.48389 0 0
9.48389 0 0
9.53198 0 0
9.53198 0 0
9.58008 0 0
9.58008 0 0
9.62817 0 0
9.62817 0 0
9.67627 0 0
9.67627 0 0
9.72437 0 0
9.72437 0 0
9.77246 0 0
9.77246 0 0
9.82056 0 0
9.82056 0 0
9.86865 0 0
9.86865 0 0
9.91675 0 0
9.91675 0 0
9.96484 0 0
9.96484 0 0
10.0129 0 0
10.0129 0 0
10.061 0 0
10.061 0 0
10.1091 0 0
10.1091 0 0
10.1572 0 0
10.1572 0 0
10.2053 0 0
10.2053 0 0
10.2534 0 0
10.2534 0 0
10.3015 0 0
10.3015 0 0
10.3496 0 0
10.3496 0 0
10.3977 0 0
10.3977 0 0
10.4458 0 0
10.4458 0 0
10.4939 0 0
10.4939 0 0
10.542 0 0
10.542 0 0
10.5901 0 0
10.5901 0 0
10.6382 0 0
10.6382 0 0
10.6863 0 0
10.6863 0 0
10.7344 0 0
10.7344 0 0
10.7825 0 0
10.7825 0 0
10.8306 0 0
10.8306 0 0
10.8787 0 0
10.8787 0 0
10.9268 0 0
10.9268 0 0
10.9749 0 0
10.9749 0 0
11.0229 0 0
11.0229 0 0
11.071 0 0
11.071 0 0
11.1191 0 0
11.1191 0 0
11.1672 0 0
11.1672 0 0
11.2153 0 0
11.2153 0 0
11.2634 0 0
11.2634 0 0
11.3115 0 0
11.3115 0 0
11.3596 0 0
11.3596 0 0
11.4077 0 0
11.4077 0 0
11.4558 0 0
11.4558 0 0
11.5039 0 0
11.5039 0 0
11.552 0 0
11.552 0 0
11.6001 0 0
11.6001 0 0
11.6482 0 0
11.6482 0 0
11.6963 0 0
11.6963 0 0
11.7444 0 0
11.7444 0 0
11.7925 0 0
11.7925 0 0
11.8406 0 0
11.8406 0 0
11.8887 0 0
11.8887 0 0
11.9368 0 0
11.9368 0 0
11.9849 0 0
11.9849 0 0
12.033 0 0
12.033 0 0
12.0811 0 0
12.0811 0 0
12.1292 0 0
12.1292 0 0
12.1772 0 0
12.1772 0 0
12.2253 0 0
12.2253 0 0
12.2734 0 0
12.2734 0 0
12.3215 0 0
12.3215 0 0
12.3696 0 0
12.3696 0 0
12.4177 0 0
12.4177 0 0
12.4658 0 0
12.4658 0 0
12.5139 0 0
12.5139 0 0
12.562 0 0
12.562 0 0
12.6101 0 0
12.6101 0 0
12.6582 0 0
12.6582 0 0
12.7063 0 0
12.7063 0 0
12.7544 0 0
12.7544 0 0
12.8025 0 0
12.8025 0 0
12.8506 0 0
12.8506 0 0
12.8987 0 0
12.8987 0 0
12.9468 0 0
12.9468 0 0
12.9949 0 0
12.9949 0 0
13.043 0 0
13.043 0 0
13.0911 0 0
13.0911 0 0
13.1392 0 0
13.1392 0 0
13.1873 0 0
13.1873 0 0
13.2354 0 0
13.2354 0 0
13.2834 0 0
13.2834 0 0
13.3315 0 0
13.3315 0 0
13.3796 0 0
13.3796 0 0
13.4277 0 0
13.4277 0 0
13.4758 0 0
13.4758 0 0
13.5239 0 0
13.5239 0 0
13.572 0 0
13.572 0 0
13.6201 0 0
13.6201 0 0
13.6682 0 0
13.6682 0 0
13.7163 0 0
13.7163 0 0
13.7644 0 0
13.7644 0 0
13.8125 0 0
13.8125 0 0
13.8606 0 0
13.8606 0 0
13.9087 0 0
13.9087 0 0
13.9568 0 0
13.9568 0 0
14.0049 0 0
14.0049 0 0
14.053 0 0
14.053 0 0
14.1011 0 0
14.1011 0 0
14.1492 0 0
14.1492 0 0
14.1973 0 0
14.1973 0 0
14.2454 0 0
14.2454 0 0
14.2935 0 0
14.2935 0 0
14.3416 0 0
14.3416 0 0
14.3896 0 0
14.3896 0 0
14.4377 0 0
14.4377 0 0
14.4858 0 0
14.4858 0 0
14.5339 0 0
14.5339 0 0
14.582 0 0
14.582 0 0
14.6301 0 0
14.6301 0 0
14.6782 0 0
14.6782 0 0
14.7263 0 0
14.7263 0 0
14.7744 0 0
14.7744 0 0
14.8225 0 0
14.8225 0 0
14.8706 0 0
14.8706 0 0
14.9187 0 0
14.9187 0 0
14.9668 0 0
14.9668 0 0
15.0149 0 0
15.0149 0 0
15.063 0 0
15.063 0 0
15.1111 0 0
15.1111 0 0
15.1592 0 0
15.1592 0 0
15.2073 0 0
15.2073 0 0
15.2554 0 0
15.2554 0 0
15.3035 0 0
15.3035 0 0
15.3516 0 0
15.3516 0 0
15.3997 0 0
15.3997 0 0
15.4478 0 0
15.4478 0 0
15.4958 0 0
15.4958 0 0
15.5439 0 0
15.5439 0 0
15.592 0 0
15.592 0 0
15.6401 0 0
15.6401 0 0
15.6882 0 0
15.6882 0 0
15.7363 0 0
15.7363 0 0
15.7844 0 0
15.7844 0 0
15.8325 0 0
15.8325 0 0
15.8806 0 0
15.8806 0 0
15.9287 0 0
15.9287 0 0
15.9768 0 0
15.9768 0 0
16.0249 0 0
16.0249 0 0
16.073 0 0
16.073 0 0
16.1211 0 0
16.1211 0 0
16.1692 0 0
16.1692 0 0
16.2173 0 0
16.2173 0 0
16.2654 0 0
16.2654 0 0
16.3135 0 0
16.3135 0 0
16.3616 0 0
16.3616 0 0
16.4097 0 0
16.4097 0 0
16.4578 0 0
16.4578 0 0
16.5059 0 0
16.5059 0 0
16.554 0 0
16.554 0 0
16.6021 0 0
16.6021 0 0
16.6501 0 0
16.6501 0 0
16.6982 0 0
16.6982 0 0
16.7463 0 0
16.7463 0 0
16.7944 0 0
16.7944 0 0
16.8425 0 0
16.8425 0 0
16.8906 0 0
16.8906 0 0
16.9387 0 0
16.9387 0 0
16.9868 0 0
16.9868 0 0
17.0349 0 0
17.0349 0 0
17.083 0 0
17.083 0 0
17.1311 0 0
17.1311 0 0
17.1792 0 0
17.1792 0 0
17.2273 0 0
17.2273 0 0
17.2754 0 0
17.2754 0 0
17.3235 0 0
17.3235 0 0
17.3716 0 0
17.3716 0 0
17.4197 0 0
17.4197 0 0
17.4678 0 0
17.4678 0 0
17.5159 0 0
17.5159 0 0
17.564 0 0
17.564 0 0
17.6121 0 0
17.6121 0 0
17.6602 0 0
17.6602 0 0
17.7083 0 0
17.7083 0 0
17.7563 0 0
17.7563 0 0
17.8044 0 0
17.8044 0 0
17.8525 0 0
17.8525 0 0
17.9006 0 0
17.9006 0 0
17.9487 0 0
17.9487 0 0
17.9968 0 0
17.9968 0 0
18.0449 0 0
18.0449 0 0
18.093 0 0
18.093 0 0
18.1411 0 0
18.1411 0 0
18.1892 0 0
18.1892 0 0
18.2373 0 0
18.2373 0 0
18.2854 0 0
18.2854 0 0
18.3335 0 0
18.3335 0 0
18.3816 0 0
18.3816 0 0
18.4297 0 0
18.4297 0 0
18.4778 0 0
18.4778 0 0
18.5259 0 0
18.5259 0 0
18.574 0 0
18.574 0 0
18.6221 0 0
18.6221 0 0
18.6702 0 0
18.6702 0 0
18.7183 0 0
18.7183 0 0
18.7664 0 0
18.7664 0 0
18.8145 0 0
18.8145 0 0
18.8625 0 0
18.8625 0 0
18.9106 0 0
18.9106 0 0
18.9587 0 0
18.9587 0 0
19.0068 0 0
19.0068 0 0
19.0549 0 0
19.0549 0 0
19.103 0 0
19.103 0 0
19.1511 0 0
19.1511 0 0
19.1992 0 0
19.1992 0 0
19.2473 0 0
19.2473 0 0
19.2954 0 0
19.2954 0 0
19.3435 0 0
19.3435 0 0
19.3916 0 0
19.3916 0 0
19.4397 0 0
19.4397 0 0
19.4878 0 0
19.4878 0 0
19.5359 0 0
19.5359 0 0
19.584 0 0
19.584 0 0
19.6321 0 0
19.6321 0 0
19.6802 0 0
19.6802 0 0
19.7283 0 0
19.7283 0 0
19.7764 0 0
19.7764 0 0
19.8245 0 0
19.8245 0 0
19.8726 0 0
19.8726 0 0
19.9207 0 0
19.9207 0 0
19.9688 0 0
19.9688 0 0
20.0168 0 0
20.0168 0 0
20.0649 0 0
20.0649 0 0
20.113 0 0
20.113 0 0
20.1611 0 0
20.1611 0 0
20.2092 0 0
20.2092 0 0
20.2573 0 0
20.2573 0 0
20.3054 0 0
20.3054 0 0
20.3535 0 0
20.3535 0 0
20.4016 0 0
20.4016 0 0
20.4497 0 0
20.4497 0 0
20.4978 0 0
20.4978 0 0
20.5459 0 0
20.5459 0 0
20.594 0 0
20.594 0 0
20.6421 0 0
20.6421 0 0
20.6902 0 0
20.6902 0 0
20.7383 0 0
20.7383 0 0
20.7864 0 0
20.7864 0 0
20.8345 0 0
20.8345 0 0
20.8826 0 0
20.8826 0 0
20.9307 0 0
20.9307 0 0
20.9788 0 0
20.9788 0 0
21.0269 0 0
21.0269 0 0
21.075 0 0
21.075 0 0
21.123 0 0
21.123 0 0
21.1711 0 0
21.1711 0 0
21.2192 0 0
21.2192 0 0
21.2673 0 0
21.2673 0 0
21.3154 0 0
21.3154 0 0
21.3635 0 0
21.3635 0 0
21.4116 0 0
[...]
POINT_DATA 4096
SCALARS solution_0 double 1
LOOKUP_TABLE default
1.0597e+13 1.03921e+13 1.03921e+13 1.02021e+13 1.02021e+13 1.00254e+13 1.00254e+13 9.86071e+12 9.86071e+12 9.70675e+12 9.70675e+12 9.56249e+12 9.56249e+12 9.42701e+12 9.42701e+12 9.2995e+12 9.2995e+12 9.17921e+12 9.17921e+12 9.0655e+12 9.0655e+12 8.95779e+12 8.95779e+12 8.85556e+12 8.85556e+12 8.75835e+12 8.75835e+12 8.66573e+12 8.66573e+12 8.57733e+12 8.57733e+12 8.49282e+12 8.49282e+12 8.41188e+12 8.41188e+12 8.33424e+12 8.33424e+12 8.25965e+12 8.25965e+12 8.18787e+12 8.18787e+12 8.11871e+12 8.11871e+12 8.05197e+12 8.05197e+12 7.98747e+12 7.98747e+12 7.92507e+12 7.92507e+12 7.86461e+12 7.86461e+12 7.80596e+12 7.80596e+12 7.749e+12 7.749e+12 7.69362e+12 7.69362e+12 7.63972e+12 7.63972e+12 7.5872e+12 7.5872e+12 7.53598e+12 7.53598e+12 7.48597e+12 7.48597e+12 7.4371e+12 7.4371e+12 7.38931e+12 7.38931e+12 7.34252e+12 7.34252e+12 7.29668e+12 7.29668e+12 7.25173e+12 7.25173e+12 7.20763e+12 7.20763e+12 7.16432e+12 7.16432e+12 7.12177e+12 7.12177e+12 7.07993e+12 7.07993e+12 7.03877e+12 7.03877e+12 6.99825e+12 6.99825e+12 6.95833e+12 6.95833e+12 6.91899e+12 6.91899e+12 6.8802e+12 6.8802e+12 6.84193e+12 6.84193e+12 6.80416e+12 6.80416e+12 6.76686e+12 6.76686e+12 6.73001e+12 6.73001e+12 6.6936e+12 6.6936e+12 6.6576e+12 6.6576e+12 6.62199e+12 6.62199e+12 6.58676e+12 6.58676e+12 6.55189e+12 6.55189e+12 6.51737e+12 6.51737e+12 6.48319e+12 6.48319e+12 6.44933e+12 6.44933e+12 6.41577e+12 6.41577e+12 6.38252e+12 6.38252e+12 6.34955e+12 6.34955e+12 6.31686e+12 6.31686e+12 6.28444e+12 6.28444e+12 6.25228e+12 6.25228e+12 6.22036e+12 6.22036e+12 6.18869e+12 6.18869e+12 6.15726e+12 6.15726e+12 6.12605e+12 6.12605e+12 6.09507e+12 6.09507e+12 6.0643e+12 6.0643e+12 6.03374e+12 6.03374e+12 6.00339e+12 6.00339e+12 5.97324e+12 5.97324e+12 5.94328e+12 5.94328e+12 5.91351e+12 5.91351e+12 5.88392e+12 5.88392e+12 5.85452e+12 5.85452e+12 5.82529e+12 5.82529e+12 5.79624e+12 5.79624e+12 5.76736e+12 5.76736e+12 5.73864e+12 5.73864e+12 5.71009e+12 5.71009e+12 5.6817e+12 5.6817e+12 5.65347e+12 5.65347e+12 5.62539e+12 5.62539e+12 5.59747e+12 5.59747e+12 5.56969e+12 5.56969e+12 5.54207e+12 5.54207e+12 5.51459e+12 5.51459e+12 5.48726e+12 5.48726e+12 5.46006e+12 5.46006e+12 5.43301e+12 5.43301e+12 5.4061e+12 5.4061e+12 5.37932e+12 5.37932e+12 5.35268e+12 5.35268e+12 5.32618e+12 5.32618e+12 5.2998e+12 5.2998e+12 5.27356e+12 5.27356e+12 5.24744e+12 5.24744e+12 5.22146e+12 5.22146e+12 5.1956e+12 5.1956e+12 5.16987e+12 5.16987e+12 5.14426e+12 5.14426e+12 5.11878e+12 5.11878e+12 5.09342e+12 5.09342e+12 5.06819e+12 5.06819e+12 5.04307e+12 5.04307e+12 5.01808e+12 5.01808e+12 4.9932e+12 4.9932e+12 4.96845e+12 4.96845e+12 4.94381e+12 4.94381e+12 4.91929e+12 4.91929e+12 4.89489e+12 4.89489e+12 4.8706e+12 4.8706e+12 4.84642e+12 4.84642e+12 4.82237e+12 4.82237e+12 4.79842e+12 4.79842e+12 4.77459e+12 4.77459e+12 4.75087e+12 4.75087e+12 4.72727e+12 4.72727e+12 4.70377e+12 4.70377e+12 4.68039e+12 4.68039e+12 4.65712e+12 4.65712e+12 4.63395e+12 4.63395e+12 4.6109e+12 4.6109e+12 4.58796e+12 4.58796e+12 4.56512e+12 4.56512e+12 4.54239e+12 4.54239e+12 4.51977e+12 4.51977e+12 4.49726e+12 4.49726e+12 4.47486e+12 4.47486e+12 4.45256e+12 4.45256e+12 4.43036e+12 4.43036e+12 4.40828e+12 4.40828e+12 4.38629e+12 4.38629e+12 4.36441e+12 4.36441e+12 4.34264e+12 4.34264e+12 4.32097e+12 4.32097e+12 4.2994e+12 4.2994e+12 4.27794e+12 4.27794e+12 4.25658e+12 4.25658e+12 4.23532e+12 4.23532e+12 4.21417e+12 4.21417e+12 4.19311e+12 4.19311e+12 4.17216e+12 4.17216e+12 4.1513e+12 4.1513e+12 4.13055e+12 4.13055e+12 4.1099e+12 4.1099e+12 4.08935e+12 4.08935e+12 4.06889e+12 4.06889e+12 4.04854e+12 4.04854e+12 4.02828e+12 4.02828e+12 4.00813e+12 4.00813e+12 3.98807e+12 3.98807e+12 3.96811e+12 3.96811e+12 3.94824e+12 3.94824e+12 3.92848e+12 3.92848e+12 3.9088e+12 3.9088e+12 3.88923e+12 3.88923e+12 3.86975e+12 3.86975e+12 3.85037e+12 3.85037e+12 3.83108e+12 3.83108e+12 3.81189e+12 3.81189e+12 3.79279e+12 3.79279e+12 3.77378e+12 3.77378e+12 3.75487e+12 3.75487e+12 3.73605e+12 3.73605e+12 3.71733e+12 3.71733e+12 3.69869e+12 3.69869e+12 3.68015e+12 3.68015e+12 3.66171e+12 3.66171e+12 3.64335e+12 3.64335e+12 3.62508e+12 3.62508e+12 3.60691e+12 3.60691e+12 3.58883e+12 3.58883e+12 3.57083e+12 3.57083e+12 3.55293e+12 3.55293e+12 3.53512e+12 3.53512e+12 3.51739e+12 3.51739e+12 3.49975e+12 3.49975e+12 3.48221e+12 3.48221e+12 3.46475e+12 3.46475e+12 3.44737e+12 3.44737e+12 3.43009e+12 3.43009e+12 3.41289e+12 3.41289e+12 3.39578e+12 3.39578e+12 3.37876e+12 3.37876e+12 3.36182e+12 3.36182e+12 3.34497e+12 3.34497e+12 3.3282e+12 3.3282e+12 3.31152e+12 3.31152e+12 3.29492e+12 3.29492e+12 3.2784e+12 3.2784e+12 3.26197e+12 3.26197e+12 3.24563e+12 3.24563e+12 3.22936e+12 3.22936e+12 3.21318e+12 3.21318e+12 3.19708e+12 3.19708e+12 3.18107e+12 3.18107e+12 3.16513e+12 3.16513e+12 3.14928e+12 3.14928e+12 3.13351e+12 3.13351e+12 3.11781e+12 3.11781e+12 3.1022e+12 3.1022e+12 3.08667e+12 3.08667e+12 3.07122e+12 3.07122e+12 3.05585e+12 3.05585e+12 3.04055e+12 3.04055e+12 3.02534e+12 3.02534e+12 3.0102e+12 3.0102e+12 2.99514e+12 2.99514e+12 2.98016e+12 2.98016e+12 2.96525e+12 2.96525e+12 2.95042e+12 2.95042e+12 2.93567e+12 2.93567e+12 2.921e+12 2.921e+12 2.9064e+12 2.9064e+12 2.89187e+12 2.89187e+12 2.87742e+12 2.87742e+12 2.86305e+12 2.86305e+12 2.84875e+12 2.84875e+12 2.83452e+12 2.83452e+12 2.82037e+12 2.82037e+12 2.80629e+12 2.80629e+12 2.79228e+12 2.79228e+12 2.77834e+12 2.77834e+12 2.76448e+12 2.76448e+12 2.75069e+12 2.75069e+12 2.73697e+12 2.73697e+12 2.72332e+12 2.72332e+12 2.70974e+12 2.70974e+12 2.69624e+12 2.69624e+12 2.6828e+12 2.6828e+12 2.66943e+12 2.66943e+12 2.65614e+12 2.65614e+12 2.64291e+12 2.64291e+12 2.62975e+12 2.62975e+12 2.61666e+12 2.61666e+12 2.60363e+12 2.60363e+12 2.59068e+12 2.59068e+12 2.57779e+12 2.57779e+12 2.56497e+12 2.56497e+12 2.55221e+12 2.55221e+12 2.53953e+12 2.53953e+12 2.5269e+12 2.5269e+12 2.51435e+12 2.51435e+12 2.50186e+12 2.50186e+12 2.48943e+12 2.48943e+12 2.47707e+12 2.47707e+12 2.46477e+12 2.46477e+12 2.45254e+12 2.45254e+12 2.44037e+12 2.44037e+12 2.42826e+12 2.42826e+12 2.41622e+12 2.41622e+12 2.40424e+12 2.40424e+12 2.39232e+12 2.39232e+12 2.38047e+12 2.38047e+12 2.36868e+12 2.36868e+12 2.35694e+12 2.35694e+12 2.34527e+12 2.34527e+12 2.33366e+12 2.33366e+12 2.32211e+12 2.32211e+12 2.31062e+12 2.31062e+12 2.29919e+12 2.29919e+12 2.28782e+12 2.28782e+12 2.27651e+12 2.27651e+12 2.26526e+12 2.26526e+12 2.25407e+12 2.25407e+12 2.24293e+12 2.24293e+12 2.23186e+12 2.23186e+12 2.22084e+12 2.22084e+12 2.20988e+12 2.20988e+12 2.19897e+12 2.19897e+12 2.18812e+12 2.18812e+12 2.17733e+12 2.17733e+12 2.1666e+12 2.1666e+12 2.15592e+12 2.15592e+12 2.14529e+12 2.14529e+12 2.13473e+12 2.13473e+12 2.12421e+12 2.12421e+12 2.11375e+12 2.11375e+12 2.10335e+12 2.10335e+12 2.093e+12 2.093e+12 2.0827e+12 2.0827e+12 2.07246e+12 2.07246e+12 2.06227e+12 2.06227e+12 2.05213e+12 2.05213e+12 2.04205e+12 2.04205e+12 2.03202e+12 2.03202e+12 2.02204e+12 2.02204e+12 2.01211e+12 2.01211e+12 2.00223e+12 2.00223e+12 1.99241e+12 1.99241e+12 1.98263e+12 1.98263e+12 1.97291e+12 1.97291e+12 1.96324e+12 1.96324e+12 1.95361e+12 1.95361e+12 1.94404e+12 1.94404e+12 1.93452e+12 1.93452e+12 1.92504e+12 1.92504e+12 1.91562e+12 1.91562e+12 1.90624e+12 1.90624e+12 1.89691e+12 1.89691e+12 1.88763e+12 1.88763e+12 1.8784e+12 1.8784e+12 1.86922e+12 1.86922e+12 1.86008e+12 1.86008e+12 1.85099e+12 1.85099e+12 1.84195e+12 1.84195e+12 1.83295e+12 1.83295e+12 1.824e+12 1.824e+12 1.8151e+12 1.8151e+12 1.80624e+12 1.80624e+12 1.79743e+12 1.79743e+12 1.78866e+12 1.78866e+12 1.77994e+12 1.77994e+12 1.77126e+12 1.77126e+12 1.76263e+12 1.76263e+12 1.75405e+12 1.75405e+12 1.7455e+12 1.7455e+12 1.737e+12 1.737e+12 1.72855e+12 1.72855e+12 1.72013e+12 1.72013e+12 1.71176e+12 1.71176e+12 1.70344e+12 1.70344e+12 1.69515e+12 1.69515e+12 1.68691e+12 1.68691e+12 1.67871e+12 1.67871e+12 1.67055e+12 1.67055e+12 1.66244e+12 1.66244e+12 1.65436e+12 1.65436e+12 1.64633e+12 1.64633e+12 1.63834e+12 1.63834e+12 1.63039e+12 1.63039e+12 1.62247e+12 1.62247e+12 1.6146e+12 1.6146e+12 1.60677e+12 1.60677e+12 1.59898e+12 1.59898e+12 1.59123e+12 1.59123e+12 1.58352e+12 1.58352e+12 1.57585e+12 1.57585e+12 1.56821e+12 1.56821e+12 1.56062e+12 1.56062e+12 1.55306e+12 1.55306e+12 1.54554e+12 1.54554e+12 1.53806e+12 1.53806e+12 1.53062e+12 1.53062e+12 1.52322e+12 1.52322e+12 1.51585e+12 1.51585e+12 1.50852e+12 1.50852e+12 1.50123e+12 1.50123e+12 1.49397e+12 1.49397e+12 1.48675e+12 1.48675e+12 1.47957e+12 1.47957e+12 1.47242e+12 1.47242e+12 1.46531e+12 1.46531e+12 1.45824e+12 1.45824e+12 1.4512e+12 1.4512e+12 1.4442e+12 1.4442e+12 1.43723e+12 1.43723e+12 1.43029e+12 1.43029e+12 1.42339e+12 1.42339e+12 1.41653e+12 1.41653e+12 1.4097e+12 1.4097e+12 1.4029e+12 1.4029e+12 1.39614e+12 1.39614e+12 1.38941e+12 1.38941e+12 1.38272e+12 1.38272e+12 1.37606e+12 1.37606e+12 1.36943e+12 1.36943e+12 1.36284e+12 1.36284e+12 1.35628e+12 1.35628e+12 1.34975e+12 1.34975e+12 1.34325e+12 1.34325e+12 1.33679e+12 1.33679e+12 1.33035e+12 1.33035e+12 1.32395e+12 1.32395e+12 1.31759e+12 1.31759e+12 1.31125e+12 1.31125e+12 1.30494e+12 1.30494e+12 1.29867e+12 1.29867e+12 1.29243e+12 1.29243e+12 1.28621e+12 1.28621e+12 1.28003e+12 1.28003e+12 1.27388e+12 1.27388e+12 1.26776e+12 1.26776e+12 1.26167e+12 1.26167e+12 1.25561e+12 1.25561e+12 1.24958e+12 1.24958e+12 1.24358e+12 1.24358e+12 1.23761e+12 1.23761e+12 1.23166e+12 1.23166e+12 1.22575e+12 1.22575e+12 1.21987e+12 1.21987e+12 1.21401e+12 1.21401e+12 1.20819e+12 1.20819e+12 1.20239e+12 1.20239e+12 1.19662e+12 1.19662e+12 1.19088e+12 1.19088e+12 1.18516e+12 1.18516e+12 1.17948e+12 1.17948e+12 1.17382e+12 1.17382e+12 1.16819e+12 1.16819e+12 1.16259e+12 1.16259e+12 1.15701e+12 1.15701e+12 1.15146e+12 1.15146e+12 1.14594e+12 1.14594e+12 1.14045e+12 1.14045e+12 1.13498e+12 1.13498e+12 1.12954e+12 1.12954e+12 1.12412e+12 1.12412e+12 1.11873e+12 1.11873e+12 1.11337e+12 1.11337e+12 1.10803e+12 1.10803e+12 1.10272e+12 1.10272e+12 1.09743e+12 1.09743e+12 1.09217e+12 1.09217e+12 1.08694e+12 1.08694e+12 1.08173e+12 1.08173e+12 1.07654e+12 1.07654e+12 1.07138e+12 1.07138e+12 1.06625e+12 1.06625e+12 1.06114e+12 1.06114e+12 1.05605e+12 1.05605e+12 1.05099e+12 1.05099e+12 1.04595e+12 1.04595e+12 1.04094e+12 1.04094e+12 1.03595e+12 1.03595e+12 1.03099e+12 1.03099e+12 1.02604e+12 1.02604e+12 1.02112e+12 1.02112e+12 1.01623e+12 1.01623e+12 1.01136e+12 1.01136e+12 1.00651e+12 1.00651e+12 1.00168e+12 1.00168e+12 9.96881e+11 9.96881e+11 9.92101e+11 9.92101e+11 9.87344e+11 9.87344e+11 9.82609e+11 9.82609e+11 9.77896e+11 9.77896e+11 9.73206e+11 9.73206e+11 9.68538e+11 9.68538e+11 9.63892e+11 9.63892e+11 9.59268e+11 9.59268e+11 9.54665e+11 9.54665e+11 9.50085e+11 9.50085e+11 9.45525e+11 9.45525e+11 9.40988e+11 9.40988e+11 9.36471e+11 9.36471e+11 9.31976e+11 9.31976e+11 9.27501e+11 9.27501e+11 9.23048e+11 9.23048e+11 9.18615e+11 9.18615e+11 9.14203e+11 9.14203e+11 9.09812e+11 9.09812e+11 9.05441e+11 9.05441e+11 9.01091e+11 9.01091e+11 8.9676e+11 8.9676e+11 8.9245e+11 8.9245e+11 8.8816e+11 8.8816e+11 8.8389e+11 8.8389e+11 8.7964e+11 8.7964e+11 8.75409e+11 8.75409e+11 8.71198e+11 8.71198e+11 8.67006e+11 8.67006e+11 8.62834e+11 8.62834e+11 8.58681e+11 8.58681e+11 8.54547e+11 8.54547e+11 8.50432e+11 8.50432e+11 8.46337e+11 8.46337e+11 8.4226e+11 8.4226e+11 8.38201e+11 8.38201e+11 8.34162e+11 8.34162e+11 8.30141e+11 8.30141e+11 8.26138e+11 8.26138e+11 8.22154e+11 8.22154e+11 8.18188e+11 8.18188e+11 8.1424e+11 8.1424e+11 8.1031e+11 8.1031e+11 8.06398e+11 8.06398e+11 8.02504e+11 8.02504e+11 7.98628e+11 7.98628e+11 7.94769e+11 7.94769e+11 7.90928e+11 7.90928e+11 7.87104e+11 7.87104e+11 7.83298e+11 7.83298e+11 7.79508e+11 7.79508e+11 7.75737e+11 7.75737e+11 7.71982e+11 7.71982e+11 7.68244e+11 7.68244e+11 7.64523e+11 7.64523e+11 7.60819e+11 7.60819e+11 7.57131e+11 7.57131e+11 7.5346e+11 7.5346e+11 7.49806e+11 7.49806e+11 7.46168e+11 7.46168e+11 7.42547e+11 7.42547e+11 7.38941e+11 7.38941e+11 7.35352e+11 7.35352e+11 7.31779e+11 7.31779e+11 7.28222e+11 7.28222e+11 7.24681e+11 7.24681e+11 7.21156e+11 7.21156e+11 7.17647e+11 7.17647e+11 7.14153e+11 7.14153e+11 7.10675e+11 7.10675e+11 7.07212e+11 7.07212e+11 7.03764e+11 7.03764e+11 7.00333e+11 7.00333e+11 6.96916e+11 6.96916e+11 6.93514e+11 6.93514e+11 6.90128e+11 6.90128e+11 6.86756e+11 6.86756e+11 6.834e+11 6.834e+11 6.80058e+11 6.80058e+11 6.76731e+11 6.76731e+11 6.73419e+11 6.73419e+11 6.70121e+11 6.70121e+11 6.66838e+11 6.66838e+11 6.63569e+11 6.63569e+11 6.60315e+11 6.60315e+11 6.57075e+11 6.57075e+11 6.53849e+11 6.53849e+11 6.50637e+11 6.50637e+11 6.4744e+11 6.4744e+11 6.44256e+11 6.44256e+11 6.41086e+11 6.41086e+11 6.37931e+11 6.37931e+11 6.34789e+11 6.34789e+11 6.3166e+11 6.3166e+11 6.28545e+11 6.28545e+11 6.25444e+11 6.25444e+11 6.22357e+11 6.22357e+11 6.19283e+11 6.19283e+11 6.16222e+11 6.16222e+11 6.13174e+11 6.13174e+11 6.1014e+11 6.1014e+11 6.07118e+11 6.07118e+11 6.0411e+11 6.0411e+11 6.01115e+11 6.01115e+11 5.98133e+11 5.98133e+11 5.95164e+11 5.95164e+11 5.92207e+11 5.92207e+11 5.89263e+11 5.89263e+11 5.86332e+11 5.86332e+11 5.83414e+11 5.83414e+11 5.80508e+11 5.80508e+11 5.77614e+11 5.77614e+11 5.74733e+11 5.74733e+11 5.71864e+11 5.71864e+11 5.69008e+11 5.69008e+11 5.66163e+11 5.66163e+11 5.63331e+11 5.63331e+11 5.60511e+11 5.60511e+11 5.57703e+11 5.57703e+11 5.54907e+11 5.54907e+11 5.52123e+11 5.52123e+11 5.49351e+11 5.49351e+11 5.4659e+11 5.4659e+11 5.43841e+11 5.43841e+11 5.41104e+11 5.41104e+11 5.38378e+11 5.38378e+11 5.35664e+11 5.35664e+11 5.32962e+11 5.32962e+11 5.30271e+11 5.30271e+11 5.27591e+11 5.27591e+11 5.24922e+11 5.24922e+11 5.22265e+11 5.22265e+11 5.19619e+11 5.19619e+11 5.16984e+11 5.16984e+11 5.1436e+11 5.1436e+11 5.11748e+11 5.11748e+11 5.09146e+11 5.09146e+11 5.06555e+11 5.06555e+11 5.03975e+11 5.03975e+11 5.01405e+11 5.01405e+11 4.98847e+11 4.98847e+11 4.96299e+11 4.96299e+11 4.93762e+11 4.93762e+11 4.91235e+11 4.91235e+11 4.88719e+11 4.88719e+11 4.86213e+11 4.86213e+11 4.83718e+11 4.83718e+11 4.81233e+11 4.81233e+11 4.78758e+11 4.78758e+11 4.76294e+11 4.76294e+11 4.7384e+11 4.7384e+11 4.71396e+11 4.71396e+11 4.68962e+11 4.68962e+11 4.66538e+11 4.66538e+11 4.64125e+11 4.64125e+11 4.61721e+11 4.61721e+11 4.59327e+11 4.59327e+11 4.56943e+11 4.56943e+11 4.54568e+11 4.54568e+11 4.52204e+11 4.52204e+11 4.49849e+11 4.49849e+11 4.47504e+11 4.47504e+11 4.45169e+11 4.45169e+11 4.42843e+11 4.42843e+11 4.40526e+11 4.40526e+11 4.38219e+11 4.38219e+11 4.35922e+11 4.35922e+11 4.33633e+11 4.33633e+11 4.31355e+11 4.31355e+11 4.29085e+11 4.29085e+11 4.26825e+11 4.26825e+11 4.24574e+11 4.24574e+11 4.22332e+11 4.22332e+11 4.20099e+11 4.20099e+11 4.17875e+11 4.17875e+11 4.1566e+11 4.1566e+11 4.13454e+11 4.13454e+11 4.11257e+11 4.11257e+11 4.09069e+11 4.09069e+11 4.0689e+11 4.0689e+11 4.04719e+11 4.04719e+11 4.02558e+11 4.02558e+11 4.00405e+11 4.00405e+11 3.9826e+11 3.9826e+11 3.96125e+11 3.96125e+11 3.93998e+11 3.93998e+11 3.91879e+11 3.91879e+11 3.89769e+11 3.89769e+11 3.87667e+11 3.87667e+11 3.85574e+11 3.85574e+11 3.83489e+11 3.83489e+11 3.81413e+11 3.81413e+11 3.79344e+11 3.79344e+11 3.77284e+11 3.77284e+11 3.75233e+11 3.75233e+11 3.73189e+11 3.73189e+11 3.71154e+11 3.71154e+11 3.69126e+11 3.69126e+11 3.67107e+11 3.67107e+11 3.65096e+11 3.65096e+11 3.63092e+11 3.63092e+11 3.61097e+11 3.61097e+11 3.59109e+11 3.59109e+11 3.5713e+11 3.5713e+11 3.55158e+11 3.55158e+11 3.53194e+11 3.53194e+11 3.51237e+11 3.51237e+11 3.49289e+11 3.49289e+11 3.47348e+11 3.47348e+11 3.45415e+11 3.45415e+11 3.43489e+11 3.43489e+11 3.41571e+11 3.41571e+11 3.3966e+11 3.3966e+11 3.37757e+11 3.37757e+11 3.35862e+11 3.35862e+11 3.33973e+11 3.33973e+11 3.32093e+11 3.32093e+11 3.30219e+11 3.30219e+11 3.28353e+11 3.28353e+11 3.26494e+11 3.26494e+11 3.24642e+11 3.24642e+11 3.22798e+11 3.22798e+11 3.20961e+11 3.20961e+11 3.1913e+11 3.1913e+11 3.17307e+11 3.17307e+11 3.15492e+11 3.15492e+11 3.13683e+11 3.13683e+11 3.11881e+11 3.11881e+11 3.10086e+11 3.10086e+11 3.08298e+11 3.08298e+11 3.06517e+11 3.06517e+11 3.04743e+11 3.04743e+11 3.02975e+11 3.02975e+11 3.01215e+11 3.01215e+11 2.99461e+11 2.99461e+11 2.97714e+11 2.97714e+11 2.95974e+11 2.95974e+11 2.9424e+11 2.9424e+11 2.92513e+11 2.92513e+11 2.90793e+11 2.90793e+11 2.89079e+11 2.89079e+11 2.87372e+11 2.87372e+11 2.85672e+11 2.85672e+11 2.83978e+11 2.83978e+11 2.8229e+11 2.8229e+11 2.80609e+11 2.80609e+11 2.78934e+11 2.78934e+11 2.77266e+11 2.77266e+11 2.75604e+11 2.75604e+11 2.73948e+11 2.73948e+11 2.72299e+11 2.72299e+11 2.70655e+11 2.70655e+11 2.69018e+11 2.69018e+11 2.67388e+11 2.67388e+11 2.65763e+11 2.65763e+11 2.64145e+11 2.64145e+11 2.62533e+11 2.62533e+11 2.60927e+11 2.60927e+11 2.59326e+11 2.59326e+11 2.57732e+11 2.57732e+11 2.56144e+11 2.56144e+11 2.54562e+11 2.54562e+11 2.52986e+11 2.52986e+11 2.51416e+11 2.51416e+11 2.49852e+11 2.49852e+11 2.48294e+11 2.48294e+11 2.46741e+11 2.46741e+11 2.45194e+11 2.45194e+11 2.43653e+11 2.43653e+11 2.42118e+11 2.42118e+11 2.40589e+11 2.40589e+11 2.39065e+11 2.39065e+11 2.37547e+11 2.37547e+11 2.36035e+11 2.36035e+11 2.34528e+11 2.34528e+11 2.33027e+11 2.33027e+11 2.31532e+11 2.31532e+11 2.30042e+11 2.30042e+11 2.28558e+11 2.28558e+11 2.27079e+11 2.27079e+11 2.25605e+11 2.25605e+11 2.24138e+11 2.24138e+11 2.22675e+11 2.22675e+11 2.21218e+11 2.21218e+11 2.19766e+11 2.19766e+11 2.1832e+11 2.1832e+11 2.16879e+11 2.16879e+11 2.15444e+11 2.15444e+11 2.14013e+11 2.14013e+11 2.12588e+11 2.12588e+11 2.11169e+11 2.11169e+11 2.09754e+11 2.09754e+11 2.08345e+11 2.08345e+11 2.06941e+11 2.06941e+11 2.05542e+11 2.05542e+11 2.04148e+11 2.04148e+11 2.02759e+11 2.02759e+11 2.01375e+11 2.01375e+11 1.99997e+11 1.99997e+11 1.98623e+11 1.98623e+11 1.97255e+11 1.97255e+11 1.95891e+11 1.95891e+11 1.94533e+11 1.94533e+11 1.93179e+11 1.93179e+11 1.9183e+11 1.9183e+11 1.90487e+11 1.90487e+11 1.89148e+11 1.89148e+11 1.87814e+11 1.87814e+11 1.86485e+11 1.86485e+11 1.8516e+11 1.8516e+11 1.83841e+11 1.83841e+11 1.82526e+11 1.82526e+11 1.81216e+11 1.81216e+11 1.79911e+11 1.79911e+11 1.7861e+11 1.7861e+11 1.77315e+11 1.77315e+11 1.76024e+11 1.76024e+11 1.74737e+11 1.74737e+11 1.73455e+11 1.73455e+11 1.72178e+11 1.72178e+11 1.70906e+11 1.70906e+11 1.69638e+11 1.69638e+11 1.68374e+11 1.68374e+11 1.67115e+11 1.67115e+11 1.65861e+11 1.65861e+11 1.64611e+11 1.64611e+11 1.63366e+11 1.63366e+11 1.62125e+11 1.62125e+11 1.60888e+11 1.60888e+11 1.59656e+11 1.59656e+11 1.58428e+11 1.58428e+11 1.57205e+11 1.57205e+11 1.55986e+11 1.55986e+11 1.54772e+11 1.54772e+11 1.53562e+11 1.53562e+11 1.52356e+11 1.52356e+11 1.51154e+11 1.51154e+11 1.49957e+11 1.49957e+11 1.48764e+11 1.48764e+11 1.47575e+11 1.47575e+11 1.4639e+11 1.4639e+11 1.4521e+11 1.4521e+11 1.44034e+11 1.44034e+11 1.42862e+11 1.42862e+11 1.41694e+11 1.41694e+11 1.4053e+11 1.4053e+11 1.3937e+11 1.3937e+11 1.38215e+11 1.38215e+11 1.37063e+11 1.37063e+11 1.35916e+11 1.35916e+11 1.34773e+11 1.34773e+11 1.33633e+11 1.33633e+11 1.32498e+11 1.32498e+11 1.31367e+11 1.31367e+11 1.30239e+11 1.30239e+11 1.29116e+11 1.29116e+11 1.27997e+11 1.27997e+11 1.26881e+11 1.26881e+11 1.2577e+11 1.2577e+11 1.24662e+11 1.24662e+11 1.23558e+11 1.23558e+11 1.22458e+11 1.22458e+11 1.21362e+11 1.21362e+11 1.2027e+11 1.2027e+11 1.19181e+11 1.19181e+11 1.18097e+11 1.18097e+11 1.17016e+11 1.17016e+11 1.15939e+11 1.15939e+11 1.14865e+11 1.14865e+11 1.13796e+11 1.13796e+11 1.1273e+11 1.1273e+11 1.11668e+11 1.11668e+11 1.10609e+11 1.10609e+11 1.09554e+11 1.09554e+11 1.08503e+11 1.08503e+11 1.07456e+11 1.07456e+11 1.06412e+11 1.06412e+11 1.05372e+11 1.05372e+11 1.04335e+11 1.04335e+11 1.03302e+11 1.03302e+11 1.02272e+11 1.02272e+11 1.01246e+11 1.01246e+11 1.00224e+11 1.00224e+11 9.92052e+10 9.92052e+10 9.81898e+10 9.81898e+10 9.71779e+10 9.71779e+10 9.61695e+10 9.61695e+10 9.51646e+10 9.51646e+10 9.41632e+10 9.41632e+10 9.31652e+10 9.31652e+10 9.21706e+10 9.21706e+10 9.11794e+10 9.11794e+10 9.01916e+10 9.01916e+10 8.92072e+10 8.92072e+10 8.82262e+10 8.82262e+10 8.72486e+10 8.72486e+10 8.62743e+10 8.62743e+10 8.53033e+10 8.53033e+10 8.43356e+10 8.43356e+10 8.33713e+10 8.33713e+10 8.24102e+10 8.24102e+10 8.