# vtk DataFile Version 3.0
#This file was generated by the deal.II library on 2020/9/6 at 3:35:44
ASCII
DATASET UNSTRUCTURED_GRID

POINTS 4096 double
1.5 0 0
1.5481 0 0
1.5481 0 0
1.59619 0 0
1.59619 0 0
1.64429 0 0
1.64429 0 0
1.69238 0 0
1.69238 0 0
1.74048 0 0
1.74048 0 0
1.78857 0 0
1.78857 0 0
1.83667 0 0
1.83667 0 0
1.88477 0 0
1.88477 0 0
1.93286 0 0
1.93286 0 0
1.98096 0 0
1.98096 0 0
2.02905 0 0
2.02905 0 0
2.07715 0 0
2.07715 0 0
2.12524 0 0
2.12524 0 0
2.17334 0 0
2.17334 0 0
2.22144 0 0
2.22144 0 0
2.26953 0 0
2.26953 0 0
2.31763 0 0
2.31763 0 0
2.36572 0 0
2.36572 0 0
2.41382 0 0
2.41382 0 0
2.46191 0 0
2.46191 0 0
2.51001 0 0
2.51001 0 0
2.55811 0 0
2.55811 0 0
2.6062 0 0
2.6062 0 0
2.6543 0 0
2.6543 0 0
2.70239 0 0
2.70239 0 0
2.75049 0 0
2.75049 0 0
2.79858 0 0
2.79858 0 0
2.84668 0 0
2.84668 0 0
2.89478 0 0
2.89478 0 0
2.94287 0 0
2.94287 0 0
2.99097 0 0
2.99097 0 0
3.03906 0 0
3.03906 0 0
3.08716 0 0
3.08716 0 0
3.13525 0 0
3.13525 0 0
3.18335 0 0
3.18335 0 0
3.23145 0 0
3.23145 0 0
3.27954 0 0
3.27954 0 0
3.32764 0 0
3.32764 0 0
3.37573 0 0
3.37573 0 0
3.42383 0 0
3.42383 0 0
3.47192 0 0
3.47192 0 0
3.52002 0 0
3.52002 0 0
3.56812 0 0
3.56812 0 0
3.61621 0 0
3.61621 0 0
3.66431 0 0
3.66431 0 0
3.7124 0 0
3.7124 0 0
3.7605 0 0
3.7605 0 0
3.80859 0 0
3.80859 0 0
3.85669 0 0
3.85669 0 0
3.90479 0 0
3.90479 0 0
3.95288 0 0
3.95288 0 0
4.00098 0 0
4.00098 0 0
4.04907 0 0
4.04907 0 0
4.09717 0 0
4.09717 0 0
4.14526 0 0
4.14526 0 0
4.19336 0 0
4.19336 0 0
4.24146 0 0
4.24146 0 0
4.28955 0 0
4.28955 0 0
4.33765 0 0
4.33765 0 0
4.38574 0 0
4.38574 0 0
4.43384 0 0
4.43384 0 0
4.48193 0 0
4.48193 0 0
4.53003 0 0
4.53003 0 0
4.57812 0 0
4.57812 0 0
4.62622 0 0
4.62622 0 0
4.67432 0 0
4.67432 0 0
4.72241 0 0
4.72241 0 0
4.77051 0 0
4.77051 0 0
4.8186 0 0
4.8186 0 0
4.8667 0 0
4.8667 0 0
4.91479 0 0
4.91479 0 0
4.96289 0 0
4.96289 0 0
5.01099 0 0
5.01099 0 0
5.05908 0 0
5.05908 0 0
5.10718 0 0
5.10718 0 0
5.15527 0 0
5.15527 0 0
5.20337 0 0
5.20337 0 0
5.25146 0 0
5.25146 0 0
5.29956 0 0
5.29956 0 0
5.34766 0 0
5.34766 0 0
5.39575 0 0
5.39575 0 0
5.44385 0 0
5.44385 0 0
5.49194 0 0
5.49194 0 0
5.54004 0 0
5.54004 0 0
5.58813 0 0
5.58813 0 0
5.63623 0 0
5.63623 0 0
5.68433 0 0
5.68433 0 0
5.73242 0 0
5.73242 0 0
5.78052 0 0
5.78052 0 0
5.82861 0 0
5.82861 0 0
5.87671 0 0
5.87671 0 0
5.9248 0 0
5.9248 0 0
5.9729 0 0
5.9729 0 0
6.021 0 0
6.021 0 0
6.06909 0 0
6.06909 0 0
6.11719 0 0
6.11719 0 0
6.16528 0 0
6.16528 0 0
6.21338 0 0
6.21338 0 0
6.26147 0 0
6.26147 0 0
6.30957 0 0
6.30957 0 0
6.35767 0 0
6.35767 0 0
6.40576 0 0
6.40576 0 0
6.45386 0 0
6.45386 0 0
6.50195 0 0
6.50195 0 0
6.55005 0 0
6.55005 0 0
6.59814 0 0
6.59814 0 0
6.64624 0 0
6.64624 0 0
6.69434 0 0
6.69434 0 0
6.74243 0 0
6.74243 0 0
6.79053 0 0
6.79053 0 0
6.83862 0 0
6.83862 0 0
6.88672 0 0
6.88672 0 0
6.93481 0 0
6.93481 0 0
6.98291 0 0
6.98291 0 0
7.03101 0 0
7.03101 0 0
7.0791 0 0
7.0791 0 0
7.1272 0 0
7.1272 0 0
7.17529 0 0
7.17529 0 0
7.22339 0 0
7.22339 0 0
7.27148 0 0
7.27148 0 0
7.31958 0 0
7.31958 0 0
7.36768 0 0
7.36768 0 0
7.41577 0 0
7.41577 0 0
7.46387 0 0
7.46387 0 0
7.51196 0 0
7.51196 0 0
7.56006 0 0
7.56006 0 0
7.60815 0 0
7.60815 0 0
7.65625 0 0
7.65625 0 0
7.70435 0 0
7.70435 0 0
7.75244 0 0
7.75244 0 0
7.80054 0 0
7.80054 0 0
7.84863 0 0
7.84863 0 0
7.89673 0 0
7.89673 0 0
7.94482 0 0
7.94482 0 0
7.99292 0 0
7.99292 0 0
8.04102 0 0
8.04102 0 0
8.08911 0 0
8.08911 0 0
8.13721 0 0
8.13721 0 0
8.1853 0 0
8.1853 0 0
8.2334 0 0
8.2334 0 0
8.28149 0 0
8.28149 0 0
8.32959 0 0
8.32959 0 0
8.37769 0 0
8.37769 0 0
8.42578 0 0
8.42578 0 0
8.47388 0 0
8.47388 0 0
8.52197 0 0
8.52197 0 0
8.57007 0 0
8.57007 0 0
8.61816 0 0
8.61816 0 0
8.66626 0 0
8.66626 0 0
8.71436 0 0
8.71436 0 0
8.76245 0 0
8.76245 0 0
8.81055 0 0
8.81055 0 0
8.85864 0 0
8.85864 0 0
8.90674 0 0
8.90674 0 0
8.95483 0 0
8.95483 0 0
9.00293 0 0
9.00293 0 0
9.05103 0 0
9.05103 0 0
9.09912 0 0
9.09912 0 0
9.14722 0 0
9.14722 0 0
9.19531 0 0
9.19531 0 0
9.24341 0 0
9.24341 0 0
9.2915 0 0
9.2915 0 0
9.3396 0 0
9.3396 0 0
9.3877 0 0
9.3877 0 0
9.43579 0 0
9.43579 0 0
9.48389 0 0
9.48389 0 0
9.53198 0 0
9.53198 0 0
9.58008 0 0
9.58008 0 0
9.62817 0 0
9.62817 0 0
9.67627 0 0
9.67627 0 0
9.72437 0 0
9.72437 0 0
9.77246 0 0
9.77246 0 0
9.82056 0 0
9.82056 0 0
9.86865 0 0
9.86865 0 0
9.91675 0 0
9.91675 0 0
9.96484 0 0
9.96484 0 0
10.0129 0 0
10.0129 0 0
10.061 0 0
10.061 0 0
10.1091 0 0
10.1091 0 0
10.1572 0 0
10.1572 0 0
10.2053 0 0
10.2053 0 0
10.2534 0 0
10.2534 0 0
10.3015 0 0
10.3015 0 0
10.3496 0 0
10.3496 0 0
10.3977 0 0
10.3977 0 0
10.4458 0 0
10.4458 0 0
10.4939 0 0
10.4939 0 0
10.542 0 0
10.542 0 0
10.5901 0 0
10.5901 0 0
10.6382 0 0
10.6382 0 0
10.6863 0 0
10.6863 0 0
10.7344 0 0
10.7344 0 0
10.7825 0 0
10.7825 0 0
10.8306 0 0
10.8306 0 0
10.8787 0 0
10.8787 0 0
10.9268 0 0
10.9268 0 0
10.9749 0 0
10.9749 0 0
11.0229 0 0
11.0229 0 0
11.071 0 0
11.071 0 0
11.1191 0 0
11.1191 0 0
11.1672 0 0
11.1672 0 0
11.2153 0 0
11.2153 0 0
11.2634 0 0
11.2634 0 0
11.3115 0 0
11.3115 0 0
11.3596 0 0
11.3596 0 0
11.4077 0 0
11.4077 0 0
11.4558 0 0
11.4558 0 0
11.5039 0 0
11.5039 0 0
11.552 0 0
11.552 0 0
11.6001 0 0
11.6001 0 0
11.6482 0 0
11.6482 0 0
11.6963 0 0
11.6963 0 0
11.7444 0 0
11.7444 0 0
11.7925 0 0
11.7925 0 0
11.8406 0 0
11.8406 0 0
11.8887 0 0
11.8887 0 0
11.9368 0 0
11.9368 0 0
11.9849 0 0
11.9849 0 0
12.033 0 0
12.033 0 0
12.0811 0 0
12.0811 0 0
12.1292 0 0
12.1292 0 0
12.1772 0 0
12.1772 0 0
12.2253 0 0
12.2253 0 0
12.2734 0 0
12.2734 0 0
12.3215 0 0
12.3215 0 0
12.3696 0 0
12.3696 0 0
12.4177 0 0
12.4177 0 0
12.4658 0 0
12.4658 0 0
12.5139 0 0
12.5139 0 0
12.562 0 0
12.562 0 0
12.6101 0 0
12.6101 0 0
12.6582 0 0
12.6582 0 0
12.7063 0 0
12.7063 0 0
12.7544 0 0
12.7544 0 0
12.8025 0 0
12.8025 0 0
12.8506 0 0
12.8506 0 0
12.8987 0 0
12.8987 0 0
12.9468 0 0
12.9468 0 0
12.9949 0 0
12.9949 0 0
13.043 0 0
13.043 0 0
13.0911 0 0
13.0911 0 0
13.1392 0 0
13.1392 0 0
13.1873 0 0
13.1873 0 0
13.2354 0 0
13.2354 0 0
13.2834 0 0
13.2834 0 0
13.3315 0 0
13.3315 0 0
13.3796 0 0
13.3796 0 0
13.4277 0 0
13.4277 0 0
13.4758 0 0
13.4758 0 0
13.5239 0 0
13.5239 0 0
13.572 0 0
13.572 0 0
13.6201 0 0
13.6201 0 0
13.6682 0 0
13.6682 0 0
13.7163 0 0
13.7163 0 0
13.7644 0 0
13.7644 0 0
13.8125 0 0
13.8125 0 0
13.8606 0 0
13.8606 0 0
13.9087 0 0
13.9087 0 0
13.9568 0 0
13.9568 0 0
14.0049 0 0
14.0049 0 0
14.053 0 0
14.053 0 0
14.1011 0 0
14.1011 0 0
14.1492 0 0
14.1492 0 0
14.1973 0 0
14.1973 0 0
14.2454 0 0
14.2454 0 0
14.2935 0 0
14.2935 0 0
14.3416 0 0
14.3416 0 0
14.3896 0 0
14.3896 0 0
14.4377 0 0
14.4377 0 0
14.4858 0 0
14.4858 0 0
14.5339 0 0
14.5339 0 0
14.582 0 0
14.582 0 0
14.6301 0 0
14.6301 0 0
14.6782 0 0
14.6782 0 0
14.7263 0 0
14.7263 0 0
14.7744 0 0
14.7744 0 0
14.8225 0 0
14.8225 0 0
14.8706 0 0
14.8706 0 0
14.9187 0 0
14.9187 0 0
14.9668 0 0
14.9668 0 0
15.0149 0 0
15.0149 0 0
15.063 0 0
15.063 0 0
15.1111 0 0
15.1111 0 0
15.1592 0 0
15.1592 0 0
15.2073 0 0
15.2073 0 0
15.2554 0 0
15.2554 0 0
15.3035 0 0
15.3035 0 0
15.3516 0 0
15.3516 0 0
15.3997 0 0
15.3997 0 0
15.4478 0 0
15.4478 0 0
15.4958 0 0
15.4958 0 0
15.5439 0 0
15.5439 0 0
15.592 0 0
15.592 0 0
15.6401 0 0
15.6401 0 0
15.6882 0 0
15.6882 0 0
15.7363 0 0
15.7363 0 0
15.7844 0 0
15.7844 0 0
15.8325 0 0
15.8325 0 0
15.8806 0 0
15.8806 0 0
15.9287 0 0
15.9287 0 0
15.9768 0 0
15.9768 0 0
16.0249 0 0
16.0249 0 0
16.073 0 0
16.073 0 0
16.1211 0 0
16.1211 0 0
16.1692 0 0
16.1692 0 0
16.2173 0 0
16.2173 0 0
16.2654 0 0
16.2654 0 0
16.3135 0 0
16.3135 0 0
16.3616 0 0
16.3616 0 0
16.4097 0 0
16.4097 0 0
16.4578 0 0
16.4578 0 0
16.5059 0 0
16.5059 0 0
16.554 0 0
16.554 0 0
16.6021 0 0
16.6021 0 0
16.6501 0 0
16.6501 0 0
16.6982 0 0
16.6982 0 0
16.7463 0 0
16.7463 0 0
16.7944 0 0
16.7944 0 0
16.8425 0 0
16.8425 0 0
16.8906 0 0
16.8906 0 0
16.9387 0 0
16.9387 0 0
16.9868 0 0
16.9868 0 0
17.0349 0 0
17.0349 0 0
17.083 0 0
17.083 0 0
17.1311 0 0
17.1311 0 0
17.1792 0 0
17.1792 0 0
17.2273 0 0
17.2273 0 0
17.2754 0 0
17.2754 0 0
17.3235 0 0
17.3235 0 0
17.3716 0 0
17.3716 0 0
17.4197 0 0
17.4197 0 0
17.4678 0 0
17.4678 0 0
17.5159 0 0
17.5159 0 0
17.564 0 0
17.564 0 0
17.6121 0 0
17.6121 0 0
17.6602 0 0
17.6602 0 0
17.7083 0 0
17.7083 0 0
17.7563 0 0
17.7563 0 0
17.8044 0 0
17.8044 0 0
17.8525 0 0
17.8525 0 0
17.9006 0 0
17.9006 0 0
17.9487 0 0
17.9487 0 0
17.9968 0 0
17.9968 0 0
18.0449 0 0
18.0449 0 0
18.093 0 0
18.093 0 0
18.1411 0 0
18.1411 0 0
18.1892 0 0
18.1892 0 0
18.2373 0 0
18.2373 0 0
18.2854 0 0
18.2854 0 0
18.3335 0 0
18.3335 0 0
18.3816 0 0
18.3816 0 0
18.4297 0 0
18.4297 0 0
18.4778 0 0
18.4778 0 0
18.5259 0 0
18.5259 0 0
18.574 0 0
18.574 0 0
18.6221 0 0
18.6221 0 0
18.6702 0 0
18.6702 0 0
18.7183 0 0
18.7183 0 0
18.7664 0 0
18.7664 0 0
18.8145 0 0
18.8145 0 0
18.8625 0 0
18.8625 0 0
18.9106 0 0
18.9106 0 0
18.9587 0 0
18.9587 0 0
19.0068 0 0
19.0068 0 0
19.0549 0 0
19.0549 0 0
19.103 0 0
19.103 0 0
19.1511 0 0
19.1511 0 0
19.1992 0 0
19.1992 0 0
19.2473 0 0
19.2473 0 0
19.2954 0 0
19.2954 0 0
19.3435 0 0
19.3435 0 0
19.3916 0 0
19.3916 0 0
19.4397 0 0
19.4397 0 0
19.4878 0 0
19.4878 0 0
19.5359 0 0
19.5359 0 0
19.584 0 0
19.584 0 0
19.6321 0 0
19.6321 0 0
19.6802 0 0
19.6802 0 0
19.7283 0 0
19.7283 0 0
19.7764 0 0
19.7764 0 0
19.8245 0 0
19.8245 0 0
19.8726 0 0
19.8726 0 0
19.9207 0 0
19.9207 0 0
19.9688 0 0
19.9688 0 0
20.0168 0 0
20.0168 0 0
20.0649 0 0
20.0649 0 0
20.113 0 0
20.113 0 0
20.1611 0 0
20.1611 0 0
20.2092 0 0
20.2092 0 0
20.2573 0 0
20.2573 0 0
20.3054 0 0
20.3054 0 0
20.3535 0 0
20.3535 0 0
20.4016 0 0
20.4016 0 0
20.4497 0 0
20.4497 0 0
20.4978 0 0
20.4978 0 0
20.5459 0 0
20.5459 0 0
20.594 0 0
20.594 0 0
20.6421 0 0
20.6421 0 0
20.6902 0 0
20.6902 0 0
20.7383 0 0
20.7383 0 0
20.7864 0 0
20.7864 0 0
20.8345 0 0
20.8345 0 0
20.8826 0 0
20.8826 0 0
20.9307 0 0
20.9307 0 0
20.9788 0 0
20.9788 0 0
21.0269 0 0
21.0269 0 0
21.075 0 0
21.075 0 0
21.123 0 0
21.123 0 0
21.1711 0 0
21.1711 0 0
21.2192 0 0
21.2192 0 0
21.2673 0 0
21.2673 0 0
21.3154 0 0
21.3154 0 0
21.3635 0 0
21.3635 0 0
21.4116 0 0
[...]
POINT_DATA 4096
SCALARS solution_0 double 1
LOOKUP_TABLE default
13.6947 13.4131 13.4131 13.151 13.151 12.9064 12.9064 12.6776 12.6776 12.4631 12.4631 12.2616 12.2616 12.0719 12.0719 11.893 11.893 11.724 11.724 11.5641 11.5641 11.4127 11.4127 11.269 11.269 11.1326 11.1326 11.0029 11.0029 10.8795 10.8795 10.7621 10.7621 10.6504 10.6504 10.5439 10.5439 10.4426 10.4426 10.3461 10.3461 10.2544 10.2544 10.1672 10.1672 10.0845 10.0845 10.0062 10.0062 9.93225 9.93225 9.86264 9.86264 9.79738 9.79738 9.73653 9.73653 9.68015 9.68015 9.62838 9.62838 9.58133 9.58133 9.53921 9.53921 9.50221 9.50221 9.47058 9.47058 9.44462 9.44462 9.4246 9.4246 9.41085 9.41085 9.40364 9.40364 9.40312 9.40312 9.40924 9.40924 9.42154 9.42154 9.43888 9.43888 9.45906 9.45906 9.47841 9.47841 9.49128 9.49128 9.48967 9.48967 9.46312 9.46312 9.39907 9.39907 9.28377 9.28377 9.10412 9.10412 8.84997 8.84997 8.5169 8.5169 8.10861 8.10861 7.63836 7.63836 7.12865 7.12865 6.60885 6.60885 6.11102 6.11102 5.6646 5.6646 5.29135 5.29135 5.00186 5.00186 4.7947 4.7947 4.65819 4.65819 4.57444 4.57444 4.52408 4.52408 4.49042 4.49042 4.46193 4.46193 4.43267 4.43267 4.40113 4.40113 4.36839 4.36839 4.33627 4.33627 4.30623 4.30623 4.27903 4.27903 4.25482 4.25482 4.23355 4.23355 4.2152 4.2152 4.19988 4.19988 4.18782 4.18782 4.17928 4.17928 4.17451 4.17451 4.17377 4.17377 4.17728 4.17728 4.1853 4.1853 4.19808 4.19808 4.21588 4.21588 4.23898 4.23898 4.26764 4.26764 4.30213 4.30213 4.34271 4.34271 4.38964 4.38964 4.44317 4.44317 4.50354 4.50354 4.57097 4.57097 4.64567 4.64567 4.72784 4.72784 4.81762 4.81762 4.91515 4.91515 5.02054 5.02054 5.13384 5.13384 5.2551 5.2551 5.38429 5.38429 5.52136 5.52136 5.66618 5.66618 5.81861 5.81861 5.97841 5.97841 6.14533 6.14533 6.31901 6.31901 6.49907 6.49907 6.68504 6.68504 6.87642 6.87642 7.07261 7.07261 7.27297 7.27297 7.47681 7.47681 7.68336 7.68336 7.89181 7.89181 8.1013 8.1013 8.31092 8.31092 8.51972 8.51972 8.72671 8.72671 8.93088 8.93088 9.1312 9.1312 9.32662 9.32662 9.51608 9.51608 9.69853 9.69853 9.87294 9.87294 10.0383 10.0383 10.1936 10.1936 10.3378 10.3378 10.4702 10.4702 10.5898 10.5898 10.6959 10.6959 10.7876 10.7876 10.8645 10.8645 10.9259 10.9259 10.9714 10.9714 11.0006 11.0006 11.0132 11.0132 11.0091 11.0091 10.9882 10.9882 10.9506 10.9506 10.8963 10.8963 10.8257 10.8257 10.739 10.739 10.6367 10.6367 10.5194 10.5194 10.3877 10.3877 10.2423 10.2423 10.0838 10.0838 9.91331 9.91331 9.73157 9.73157 9.53957 9.53957 9.33829 9.33829 9.12876 9.12876 8.91202 8.91202 8.68913 8.68913 8.46116 8.46116 8.22914 8.22914 7.99414 7.99414 7.75718 7.75718 7.51924 7.51924 7.28128 7.28128 7.04423 7.04423 6.80895 6.80895 6.57626 6.57626 6.34691 6.34691 6.12162 6.12162 5.90101 5.90101 5.68566 5.68566 5.47608 5.47608 5.27272 5.27272 5.07594 5.07594 4.88608 4.88608 4.70337 4.70337 4.528 4.528 4.36013 4.36013 4.19981 4.19981 4.04709 4.04709 3.90193 3.90193 3.76428 3.76428 3.63404 3.63404 3.51106 3.51106 3.39516 3.39516 3.28617 3.28617 3.18384 3.18384 3.08794 3.08794 2.9982 2.9982 2.91437 2.91437 2.83615 2.83615 2.76326 2.76326 2.69541 2.69541 2.63231 2.63231 2.57367 2.57367 2.51921 2.51921 2.46865 2.46865 2.42171 2.42171 2.37815 2.37815 2.3377 2.3377 2.30012 2.30012 2.26518 2.26518 2.23267 2.23267 2.20238 2.20238 2.17412 2.17412 2.1477 2.1477 2.12296 2.12296 2.09973 2.09973 2.07788 2.07788 2.05728 2.05728 2.03779 2.03779 2.01931 2.01931 2.00174 2.00174 1.98498 1.98498 1.96894 1.96894 1.95356 1.95356 1.93876 1.93876 1.92448 1.92448 1.91067 1.91067 1.89728 1.89728 1.88426 1.88426 1.87158 1.87158 1.8592 1.8592 1.84709 1.84709 1.83522 1.83522 1.82358 1.82358 1.81213 1.81213 1.80087 1.80087 1.78978 1.78978 1.77883 1.77883 1.76803 1.76803 1.75736 1.75736 1.74681 1.74681 1.73638 1.73638 1.72605 1.72605 1.71582 1.71582 1.7057 1.7057 1.69566 1.69566 1.68571 1.68571 1.67585 1.67585 1.66606 1.66606 1.65636 1.65636 1.64674 1.64674 1.63719 1.63719 1.62771 1.62771 1.61831 1.61831 1.60898 1.60898 1.59972 1.59972 1.59052 1.59052 1.58139 1.58139 1.57233 1.57233 1.56334 1.56334 1.55441 1.55441 1.54554 1.54554 1.53674 1.53674 1.528 1.528 1.51933 1.51933 1.51071 1.51071 1.50215 1.50215 1.49366 1.49366 1.48522 1.48522 1.47684 1.47684 1.46852 1.46852 1.46026 1.46026 1.45206 1.45206 1.44391 1.44391 1.43582 1.43582 1.42779 1.42779 1.41981 1.41981 1.41188 1.41188 1.40401 1.40401 1.39619 1.39619 1.38843 1.38843 1.38071 1.38071 1.37306 1.37306 1.36545 1.36545 1.35789 1.35789 1.35038 1.35038 1.34293 1.34293 1.33552 1.33552 1.32817 1.32817 1.32086 1.32086 1.3136 1.3136 1.30639 1.30639 1.29923 1.29923 1.29212 1.29212 1.28505 1.28505 1.27803 1.27803 1.27105 1.27105 1.26412 1.26412 1.25724 1.25724 1.2504 1.2504 1.24361 1.24361 1.23686 1.23686 1.23015 1.23015 1.22349 1.22349 1.21687 1.21687 1.21029 1.21029 1.20376 1.20376 1.19726 1.19726 1.19081 1.19081 1.1844 1.1844 1.17803 1.17803 1.1717 1.1717 1.16542 1.16542 1.15917 1.15917 1.15296 1.15296 1.14679 1.14679 1.14066 1.14066 1.13457 1.13457 1.12851 1.12851 1.1225 1.1225 1.11652 1.11652 1.11058 1.11058 1.10467 1.10467 1.09881 1.09881 1.09298 1.09298 1.08718 1.08718 1.08142 1.08142 1.0757 1.0757 1.07001 1.07001 1.06436 1.06436 1.05874 1.05874 1.05316 1.05316 1.04761 1.04761 1.04209 1.04209 1.03661 1.03661 1.03116 1.03116 1.02574 1.02574 1.02036 1.02036 1.01501 1.01501 1.00969 1.00969 1.00441 1.00441 0.99915 0.99915 0.993927 0.993927 0.988735 0.988735 0.983574 0.983574 0.978444 0.978444 0.973344 0.973344 0.968275 0.968275 0.963235 0.963235 0.958226 0.958226 0.953246 0.953246 0.948295 0.948295 0.943373 0.943373 0.938481 0.938481 0.933617 0.933617 0.928781 0.928781 0.923974 0.923974 0.919194 0.919194 0.914443 0.914443 0.909719 0.909719 0.905023 0.905023 0.900353 0.900353 0.895711 0.895711 0.891095 0.891095 0.886506 0.886506 0.881943 0.881943 0.877407 0.877407 0.872896 0.872896 0.868411 0.868411 0.863952 0.863952 0.859518 0.859518 0.855109 0.855109 0.850726 0.850726 0.846367 0.846367 0.842032 0.842032 0.837723 0.837723 0.833437 0.833437 0.829176 0.829176 0.824938 0.824938 0.820724 0.820724 0.816534 0.816534 0.812367 0.812367 0.808224 0.808224 0.804103 0.804103 0.800005 0.800005 0.795931 0.795931 0.791878 0.791878 0.787848 0.787848 0.78384 0.78384 0.779855 0.779855 0.775891 0.775891 0.771949 0.771949 0.768028 0.768028 0.764129 0.764129 0.760252 0.760252 0.756395 0.756395 0.752559 0.752559 0.748745 0.748745 0.744951 0.744951 0.741177 0.741177 0.737424 0.737424 0.733691 0.733691 0.729978 0.729978 0.726286 0.726286 0.722613 0.722613 0.718959 0.718959 0.715326 0.715326 0.711711 0.711711 0.708116 0.708116 0.70454 0.70454 0.700983 0.700983 0.697445 0.697445 0.693926 0.693926 0.690426 0.690426 0.686943 0.686943 0.68348 0.68348 0.680034 0.680034 0.676607 0.676607 0.673197 0.673197 0.669806 0.669806 0.666432 0.666432 0.663076 0.663076 0.659737 0.659737 0.656416 0.656416 0.653112 0.653112 0.649825 0.649825 0.646555 0.646555 0.643302 0.643302 0.640066 0.640066 0.636847 0.636847 0.633644 0.633644 0.630458 0.630458 0.627288 0.627288 0.624134 0.624134 0.620996 0.620996 0.617875 0.617875 0.614769 0.614769 0.61168 0.61168 0.608606 0.608606 0.605547 0.605547 0.602504 0.602504 0.599477 0.599477 0.596464 0.596464 0.593467 0.593467 0.590486 0.590486 0.587519 0.587519 0.584567 0.584567 0.58163 0.58163 0.578707 0.578707 0.575799 0.575799 0.572906 0.572906 0.570027 0.570027 0.567163 0.567163 0.564313 0.564313 0.561477 0.561477 0.558655 0.558655 0.555847 0.555847 0.553053 0.553053 0.550272 0.550272 0.547506 0.547506 0.544753 0.544753 0.542013 0.542013 0.539287 0.539287 0.536575 0.536575 0.533875 0.533875 0.531189 0.531189 0.528516 0.528516 0.525856 0.525856 0.523209 0.523209 0.520575 0.520575 0.517954 0.517954 0.515345 0.515345 0.512749 0.512749 0.510166 0.510166 0.507595 0.507595 0.505036 0.505036 0.50249 0.50249 0.499956 0.499956 0.497434 0.497434 0.494924 0.494924 0.492426 0.492426 0.48994 0.48994 0.487466 0.487466 0.485004 0.485004 0.482554 0.482554 0.480115 0.480115 0.477688 0.477688 0.475272 0.475272 0.472868 0.472868 0.470475 0.470475 0.468093 0.468093 0.465723 0.465723 0.463364 0.463364 0.461016 0.461016 0.458679 0.458679 0.456352 0.456352 0.454037 0.454037 0.451733 0.451733 0.449439 0.449439 0.447156 0.447156 0.444884 0.444884 0.442622 0.442622 0.440371 0.440371 0.43813 0.43813 0.4359 0.4359 0.43368 0.43368 0.43147 0.43147 0.429271 0.429271 0.427081 0.427081 0.424902 0.424902 0.422733 0.422733 0.420574 0.420574 0.418424 0.418424 0.416285 0.416285 0.414155 0.414155 0.412035 0.412035 0.409924 0.409924 0.407824 0.407824 0.405732 0.405732 0.403651 0.403651 0.401579 0.401579 0.399516 0.399516 0.397462 0.397462 0.395418 0.395418 0.393383 0.393383 0.391357 0.391357 0.389341 0.389341 0.387333 0.387333 0.385335 0.385335 0.383345 0.383345 0.381365 0.381365 0.379393 0.379393 0.37743 0.37743 0.375476 0.375476 0.37353 0.37353 0.371594 0.371594 0.369665 0.369665 0.367746 0.367746 0.365835 0.365835 0.363932 0.363932 0.362038 0.362038 0.360152 0.360152 0.358275 0.358275 0.356406 0.356406 0.354545 0.354545 0.352692 0.352692 0.350848 0.350848 0.349011 0.349011 0.347183 0.347183 0.345363 0.345363 0.34355 0.34355 0.341746 0.341746 0.339949 0.339949 0.338161 0.338161 0.33638 0.33638 0.334606 0.334606 0.332841 0.332841 0.331083 0.331083 0.329333 0.329333 0.32759 0.32759 0.325855 0.325855 0.324128 0.324128 0.322408 0.322408 0.320695 0.320695 0.31899 0.31899 0.317292 0.317292 0.315601 0.315601 0.313918 0.313918 0.312241 0.312241 0.310572 0.310572 0.308911 0.308911 0.307256 0.307256 0.305608 0.305608 0.303967 0.303967 0.302334 0.302334 0.300707 0.300707 0.299087 0.299087 0.297474 0.297474 0.295868 0.295868 0.294269 0.294269 0.292676 0.292676 0.29109 0.29109 0.289511 0.289511 0.287939 0.287939 0.286373 0.286373 0.284814 0.284814 0.283261 0.283261 0.281715 0.281715 0.280175 0.280175 0.278642 0.278642 0.277115 0.277115 0.275595 0.275595 0.274081 0.274081 0.272573 0.272573 0.271072 0.271072 0.269576 0.269576 0.268087 0.268087 0.266604 0.266604 0.265128 0.265128 0.263657 0.263657 0.262193 0.262193 0.260734 0.260734 0.259282 0.259282 0.257836 0.257836 0.256395 0.256395 0.254961 0.254961 0.253532 0.253532 0.252109 0.252109 0.250693 0.250693 0.249281 0.249281 0.247876 0.247876 0.246477 0.246477 0.245083 0.245083 0.243695 0.243695 0.242312 0.242312 0.240936 0.240936 0.239564 0.239564 0.238199 0.238199 0.236839 0.236839 0.235484 0.235484 0.234135 0.234135 0.232791 0.232791 0.231453 0.231453 0.230121 0.230121 0.228793 0.228793 0.227471 0.227471 0.226155 0.226155 0.224843 0.224843 0.223537 0.223537 0.222236 0.222236 0.220941 0.220941 0.21965 0.21965 0.218365 0.218365 0.217085 0.217085 0.21581 0.21581 0.21454 0.21454 0.213275 0.213275 0.212015 0.212015 0.210761 0.210761 0.209511 0.209511 0.208266 0.208266 0.207026 0.207026 0.205791 0.205791 0.204561 0.204561 0.203336 0.203336 0.202116 0.202116 0.2009 0.2009 0.19969 0.19969 0.198484 0.198484 0.197283 0.197283 0.196086 0.196086 0.194895 0.194895 0.193708 0.193708 0.192525 0.192525 0.191348 0.191348 0.190175 0.190175 0.189006 0.189006 0.187842 0.187842 0.186683 0.186683 0.185528 0.185528 0.184378 0.184378 0.183232 0.183232 0.18209 0.18209 0.180953 0.180953 0.179821 0.179821 0.178693 0.178693 0.177569 0.177569 0.176449 0.176449 0.175334 0.175334 0.174224 0.174224 0.173117 0.173117 0.172015 0.172015 0.170917 0.170917 0.169823 0.169823 0.168734 0.168734 0.167649 0.167649 0.166568 0.166568 0.165491 0.165491 0.164418 0.164418 0.163349 0.163349 0.162285 0.162285 0.161224 0.161224 0.160168 0.160168 0.159115 0.159115 0.158067 0.158067 0.157022 0.157022 0.155982 0.155982 0.154945 0.154945 0.153913 0.153913 0.152884 0.152884 0.15186 0.15186 0.150839 0.150839 0.149822 0.149822 0.148809 0.148809 0.147799 0.147799 0.146794 0.146794 0.145792 0.145792 0.144795 0.144795 0.1438 0.1438 0.14281 0.14281 0.141824 0.141824 0.140841 0.140841 0.139861 0.139861 0.138886 0.138886 0.137914 0.137914 0.136946 0.136946 0.135981 0.135981 0.13502 0.13502 0.134063 0.134063 0.133109 0.133109 0.132159 0.132159 0.131212 0.131212 0.130269 0.130269 0.129329 0.129329 0.128393 0.128393 0.127461 0.127461 0.126532 0.126532 0.125606 0.125606 0.124683 0.124683 0.123765 0.123765 0.122849 0.122849 0.121937 0.121937 0.121028 0.121028 0.120123 0.120123 0.119221 0.119221 0.118322 0.118322 0.117427 0.117427 0.116535 0.116535 0.115646 0.115646 0.11476 0.11476 0.113878 0.113878 0.112999 0.112999 0.112123 0.112123 0.111251 0.111251 0.110381 0.110381 0.109515 0.109515 0.108652 0.108652 0.107792 0.107792 0.106936 0.106936 0.106082 0.106082 0.105231 0.105231 0.104384 0.104384 0.10354 0.10354 0.102698 0.102698 0.10186 0.10186 0.101025 0.101025 0.100193 0.100193 0.0993639 0.0993639 0.0985378 0.0985378 0.0977147 0.0977147 0.0968946 0.0968946 0.0960775 0.0960775 0.0952633 0.0952633 0.094452 0.094452 0.0936437 0.0936437 0.0928383 0.0928383 0.0920357 0.0920357 0.0912361 0.0912361 0.0904394 0.0904394 0.0896455 0.0896455 0.0888545 0.0888545 0.0880663 0.0880663 0.0872809 0.0872809 0.0864983 0.0864983 0.0857186 0.0857186 0.0849416 0.0849416 0.0841675 0.0841675 0.0833961 0.0833961 0.0826274 0.0826274 0.0818615 0.0818615 0.0810983 0.0810983 0.0803378 0.0803378 0.0795801 0.0795801 0.078825 0.078825 0.0780727 0.0780727 0.077323 0.077323 0.0765759 0.0765759 0.0758315 0.0758315 0.0750898 0.0750898 0.0743507 0.0743507 0.0736142 0.0736142 0.0728803 0.0728803 0.072149 0.072149 0.0714203 0.0714203 0.0706941 0.0706941 0.0699706 0.0699706 0.0692495 0.0692495 0.068531 0.068531 0.0678151 0.0678151 0.0671016 0.0671016 0.0663907 0.0663907 0.0656823 0.0656823 0.0649764 0.0649764 0.0642729 0.0642729 0.0635719 0.0635719 0.0628733 0.0628733 0.0621773 0.0621773 0.0614836 0.0614836 0.0607924 0.0607924 0.0601036 0.0601036 0.0594171 0.0594171 0.0587331 0.0587331 0.0580515 0.0580515 0.0573722 0.0573722 0.0566954 0.0566954 0.0560208 0.0560208 0.0553487 0.0553487 0.0546788 0.0546788 0.0540113 0.0540113 0.0533461 0.0533461 0.0526832 0.0526832 0.0520226 0.0520226 0.0513643 0.0513643 0.0507083 0.0507083 0.0500545 0.0500545 0.049403 0.049403 0.0487538 0.0487538 0.0481068 0.0481068 0.047462 0.047462 0.0468195 0.0468195 0.0461792 0.0461792 0.045541 0.045541 0.0449051 0.0449051 0.0442714 0.0442714 0.0436398 0.0436398 0.0430104 0.0430104 0.0423832 0.0423832 0.0417581 0.0417581 0.0411352 0.0411352 0.0405144 0.0405144 0.0398958 0.0398958 0.0392792 0.0392792 0.0386648 0.0386648 0.0380524 0.0380524 0.0374422 0.0374422 0.036834 0.036834 0.036228 0.036228 0.0356239 0.0356239 0.035022 0.035022 0.0344221 0.0344221 0.0338242 0.0338242 0.0332284 0.0332284 0.0326346 0.0326346 0.0320428 0.0320428 0.031453 0.031453 0.0308653 0.0308653 0.0302795 0.0302795 0.0296957 0.0296957 0.0291139 0.0291139 0.0285341 0.0285341 0.0279562 0.0279562 0.0273803 0.0273803 0.0268063 0.0268063 0.0262342 0.0262342 0.0256641 0.0256641 0.025096 0.025096 0.0245297 0.0245297 0.0239653 0.0239653 0.0234029 0.0234029 0.0228423 0.0228423 0.0222837 0.0222837 0.0217269 0.0217269 0.0211719 0.0211719 0.0206189 0.0206189 0.0200677 0.0200677 0.0195183 0.0195183 0.0189708 0.0189708 0.0184251 0.0184251 0.0178813 0.0178813 0.0173393 0.0173393 0.0167991 0.0167991 0.0162606 0.0162606 0.015724 0.015724 0.0151892 0.0151892 0.0146562 0.0146562 0.014125 0.014125 0.0135955 0.0135955 0.0130678 0.0130678 0.0125418 0.0125418 0.0120176 0.0120176 0.0114951 0.0114951 0.0109744 0.0109744 0.0104554 0.0104554 0.00993817 0.00993817 0.00942262 0.00942262 0.00890879 0.00890879 0.00839665 0.00839665 0.00788622 0.00788622 0.00737748 0.00737748 0.00687042 0.00687042 0.00636504 0.00636504 0.00586133 0.00586133 0.00535929 0.00535929 0.00485891 0.00485891 0.00436018 0.00436018 0.00386309 0.00386309 0.00336765 0.00336765 0.00287384 0.00287384 0.00238166 0.00238166 0.0018911 0.0018911 0.00140216 0.00140216 0.000914821 0.000914821 0.000429089 0.000429089 -5.5046e-05 -5.5046e-05 -0.00053759 -0.00053759 -0.00101855 -0.00101855 -0.00149793 -0.00149793 -0.00197574 -0.00197574 -0.00245198 -0.00245198 -0.00292666 -0.00292666 -0.00339978 -0.00339978 -0.00387135 -0.00387135 -0.00434139 -0.00434139 -0.00480988 -0.00480988 -0.00527684 -0.00527684 -0.00574228 -0.00574228 -0.00620619 -0.00620619 -0.00666859 -0.00666859 -0.00712948 -0.00712948 -0.00758887 -0.00758887 -0.00804676 -0.00804676 -0.00850316 -0.00850316 -0.00895807 -0.00895807 -0.0094115 -0.0094115 -0.00986345 -0.00986345 -0.0103139 -0.0103139 -0.010763 -0.010763 -0.0112105 -0.0112105 -0.0116566 -0.0116566 -0.0121013 -0.0121013 -0.0125445 -0.0125445 -0.0129863 -0.0129863 -0.0134266 -0.0134266 -0.0138655 -0.0138655 -0.014303 -0.014303 -0.0147391 -0.0147391 -0.0151738 -0.0151738 -0.0156071 -0.0156071 -0.0160389 -0.0160389 -0.0164694 -0.0164694 -0.0168985 -0.0168985 -0.0173262 -0.0173262 -0.0177525 -0.0177525 -0.0181774 -0.0181774 -0.018601 -0.018601 -0.0190232 -0.0190232 -0.019444 -0.019444 -0.0198635 -0.0198635 -0.0202817 -0.0202817 -0.0206985 -0.0206985 -0.0211139 -0.0211139 -0.021528 -0.021528 -0.0219408 -0.0219408 -0.0223523 -0.0223523 -0.0227624 -0.0227624 -0.0231712 -0.0231712 -0.0235787 -0.0235787 -0.023985 -0.023985 -0.0243899 -0.0243899 -0.0247935 -0.0247935 -0.0251958 -0.0251958 -0.0255968 -0.0255968 -0.0259966 -0.0259966 -0.026395 -0.026395 -0.0267922 -0.0267922 -0.0271881 -0.0271881 -0.0275828 -0.0275828 -0.0279762 -0.0279762 -0.0283683 -0.0283683 -0.0287592 -0.0287592 -0.0291489 -0.0291489 -0.0295373 -0.0295373 -0.0299245 -0.0299245 -0.0303104 -0.0303104 -0.0306951 -0.0306951 -0.0310786 -0.0310786 -0.0314609 -0.0314609 -0.0318419 -0.0318419 -0.0322217 -0.0322217 -0.0326004 -0.0326004 -0.0329778 -0.0329778 -0.033354 -0.033354 -0.0337291 -0.0337291 -0.0341029 -0.0341029 -0.0344756 -0.0344756 -0.0348471 -0.0348471 -0.0352174 -0.0352174 -0.0355865 -0.0355865 -0.0359545 -0.0359545 -0.0363212 -0.0363212 -0.0366869 -0.0366869 -0.0370514 -0.0370514 -0.0374147 -0.0374147 -0.0377769 -0.0377769 -0.0381379 -0.0381379 -0.0384978 -0.0384978 -0.0388566 -0.0388566 -0.0392142 -0.0392142 -0.0395707 -0.0395707 -0.0399261 -0.0399261 -0.0402803 -0.0402803 -0.0406335 -0.0406335 -0.0409855 -0.0409855 -0.0413364 -0.0413364 -0.0416863 -0.0416863 -0.042035 -0.042035 -0.0423826 -0.0423826 -0.0427291 -0.0427291 -0.0430746 -0.0430746 -0.0434189 -0.0434189 -0.0437622 -0.0437622 -0.0441044 -0.0441044 -0.0444455 -0.0444455 -0.0447856 -0.0447856 -0.0451246 -0.0451246 -0.0454625 -0.0454625 -0.0457993 -0.0457993 -0.0461351 -0.0461351 -0.0464699 -0.0464699 -0.0468036 -0.0468036 -0.0471363 -0.0471363 -0.0474679 -0.0474679 -0.0477985 -0.0477985 -0.048128 -0.048128 -0.0484566 -0.0484566 -0.0487841 -0.0487841 -0.0491105 -0.0491105 -0.049436 -0.049436 -0.0497604 -0.0497604 -0.0500839 -0.0500839 -0.0504063 -0.0504063 -0.0507277 -0.0507277 -0.0510481 -0.0510481 -0.0513675 -0.0513675 -0.051686 -0.051686 -0.0520034 -0.0520034 -0.0523198 -0.0523198 -0.0526353 -0.0526353 -0.0529497 -0.0529497 -0.0532632 -0.0532632 -0.0535758 -0.0535758 -0.0538873 -0.0538873 -0.0541979 -0.0541979 -0.0545075 -0.0545075 -0.0548162 -0.0548162 -0.0551239 -0.0551239 -0.0554306 -0.0554306 -0.0557364 -0.0557364 -0.0560412 -0.0560412 -0.0563451 -0.0563451 -0.0566481 -0.0566481 -0.0569501 -0.0569501 -0.0572512 -0.0572512 -0.0575513 -0.0575513 -0.0578506 -0.0578506 -0.0581489 -0.0581489 -0.0584462 -0.0584462 -0.0587427 -0.0587427 -0.0590382 -0.0590382 -0.0593328 -0.0593328 -0.0596265 -0.0596265 -0.0599193 -0.0599193 -0.0602112 -0.0602112 -0.0605022 -0.0605022 -0.0607923 -0.0607923 -0.0610815 -0.0610815 -0.0613699 -0.0613699 -0.0616573 -0.0616573 -0.0619438 -0.0619438 -0.0622295 -0.0622295 -0.0625142 -0.0625142 -0.0627981 -0.0627981 -0.0630811 -0.0630811 -0.0633633 -0.0633633 -0.0636446 -0.0636446 -0.063925 -0.063925 -0.0642045 -0.0642045 -0.0644832 -0.0644832 -0.0647611 -0.0647611 -0.065038 -0.065038 -0.0653142 -0.0653142 -0.0655894 -0.0655894 -0.0658639 -0.0658639 -0.0661375 -0.0661375 -0.0664102 -0.0664102 -0.0666821 -0.0666821 -0.0669532 -0.0669532 -0.0672235 -0.0672235 -0.0674929 -0.0674929 -0.0677615 -0.0677615 -0.0680292 -0.0680292 -0.0682962 -0.0682962 -0.0685623 -0.0685623 -0.0688276 -0.0688276 -0.0690921 -0.0690921 -0.0693558 -0.0693558 -0.0696187 -0.0696187 -0.0698808 -0.0698808 -0.070142 -0.070142 -0.0704025 -0.0704025 -0.07