# vtk DataFile Version 3.0
#This file was generated by the deal.II library on 2020/9/6 at 3:45:19
ASCII
DATASET UNSTRUCTURED_GRID

POINTS 4096 double
1.5 0 0
1.5481 0 0
1.5481 0 0
1.59619 0 0
1.59619 0 0
1.64429 0 0
1.64429 0 0
1.69238 0 0
1.69238 0 0
1.74048 0 0
1.74048 0 0
1.78857 0 0
1.78857 0 0
1.83667 0 0
1.83667 0 0
1.88477 0 0
1.88477 0 0
1.93286 0 0
1.93286 0 0
1.98096 0 0
1.98096 0 0
2.02905 0 0
2.02905 0 0
2.07715 0 0
2.07715 0 0
2.12524 0 0
2.12524 0 0
2.17334 0 0
2.17334 0 0
2.22144 0 0
2.22144 0 0
2.26953 0 0
2.26953 0 0
2.31763 0 0
2.31763 0 0
2.36572 0 0
2.36572 0 0
2.41382 0 0
2.41382 0 0
2.46191 0 0
2.46191 0 0
2.51001 0 0
2.51001 0 0
2.55811 0 0
2.55811 0 0
2.6062 0 0
2.6062 0 0
2.6543 0 0
2.6543 0 0
2.70239 0 0
2.70239 0 0
2.75049 0 0
2.75049 0 0
2.79858 0 0
2.79858 0 0
2.84668 0 0
2.84668 0 0
2.89478 0 0
2.89478 0 0
2.94287 0 0
2.94287 0 0
2.99097 0 0
2.99097 0 0
3.03906 0 0
3.03906 0 0
3.08716 0 0
3.08716 0 0
3.13525 0 0
3.13525 0 0
3.18335 0 0
3.18335 0 0
3.23145 0 0
3.23145 0 0
3.27954 0 0
3.27954 0 0
3.32764 0 0
3.32764 0 0
3.37573 0 0
3.37573 0 0
3.42383 0 0
3.42383 0 0
3.47192 0 0
3.47192 0 0
3.52002 0 0
3.52002 0 0
3.56812 0 0
3.56812 0 0
3.61621 0 0
3.61621 0 0
3.66431 0 0
3.66431 0 0
3.7124 0 0
3.7124 0 0
3.7605 0 0
3.7605 0 0
3.80859 0 0
3.80859 0 0
3.85669 0 0
3.85669 0 0
3.90479 0 0
3.90479 0 0
3.95288 0 0
3.95288 0 0
4.00098 0 0
4.00098 0 0
4.04907 0 0
4.04907 0 0
4.09717 0 0
4.09717 0 0
4.14526 0 0
4.14526 0 0
4.19336 0 0
4.19336 0 0
4.24146 0 0
4.24146 0 0
4.28955 0 0
4.28955 0 0
4.33765 0 0
4.33765 0 0
4.38574 0 0
4.38574 0 0
4.43384 0 0
4.43384 0 0
4.48193 0 0
4.48193 0 0
4.53003 0 0
4.53003 0 0
4.57812 0 0
4.57812 0 0
4.62622 0 0
4.62622 0 0
4.67432 0 0
4.67432 0 0
4.72241 0 0
4.72241 0 0
4.77051 0 0
4.77051 0 0
4.8186 0 0
4.8186 0 0
4.8667 0 0
4.8667 0 0
4.91479 0 0
4.91479 0 0
4.96289 0 0
4.96289 0 0
5.01099 0 0
5.01099 0 0
5.05908 0 0
5.05908 0 0
5.10718 0 0
5.10718 0 0
5.15527 0 0
5.15527 0 0
5.20337 0 0
5.20337 0 0
5.25146 0 0
5.25146 0 0
5.29956 0 0
5.29956 0 0
5.34766 0 0
5.34766 0 0
5.39575 0 0
5.39575 0 0
5.44385 0 0
5.44385 0 0
5.49194 0 0
5.49194 0 0
5.54004 0 0
5.54004 0 0
5.58813 0 0
5.58813 0 0
5.63623 0 0
5.63623 0 0
5.68433 0 0
5.68433 0 0
5.73242 0 0
5.73242 0 0
5.78052 0 0
5.78052 0 0
5.82861 0 0
5.82861 0 0
5.87671 0 0
5.87671 0 0
5.9248 0 0
5.9248 0 0
5.9729 0 0
5.9729 0 0
6.021 0 0
6.021 0 0
6.06909 0 0
6.06909 0 0
6.11719 0 0
6.11719 0 0
6.16528 0 0
6.16528 0 0
6.21338 0 0
6.21338 0 0
6.26147 0 0
6.26147 0 0
6.30957 0 0
6.30957 0 0
6.35767 0 0
6.35767 0 0
6.40576 0 0
6.40576 0 0
6.45386 0 0
6.45386 0 0
6.50195 0 0
6.50195 0 0
6.55005 0 0
6.55005 0 0
6.59814 0 0
6.59814 0 0
6.64624 0 0
6.64624 0 0
6.69434 0 0
6.69434 0 0
6.74243 0 0
6.74243 0 0
6.79053 0 0
6.79053 0 0
6.83862 0 0
6.83862 0 0
6.88672 0 0
6.88672 0 0
6.93481 0 0
6.93481 0 0
6.98291 0 0
6.98291 0 0
7.03101 0 0
7.03101 0 0
7.0791 0 0
7.0791 0 0
7.1272 0 0
7.1272 0 0
7.17529 0 0
7.17529 0 0
7.22339 0 0
7.22339 0 0
7.27148 0 0
7.27148 0 0
7.31958 0 0
7.31958 0 0
7.36768 0 0
7.36768 0 0
7.41577 0 0
7.41577 0 0
7.46387 0 0
7.46387 0 0
7.51196 0 0
7.51196 0 0
7.56006 0 0
7.56006 0 0
7.60815 0 0
7.60815 0 0
7.65625 0 0
7.65625 0 0
7.70435 0 0
7.70435 0 0
7.75244 0 0
7.75244 0 0
7.80054 0 0
7.80054 0 0
7.84863 0 0
7.84863 0 0
7.89673 0 0
7.89673 0 0
7.94482 0 0
7.94482 0 0
7.99292 0 0
7.99292 0 0
8.04102 0 0
8.04102 0 0
8.08911 0 0
8.08911 0 0
8.13721 0 0
8.13721 0 0
8.1853 0 0
8.1853 0 0
8.2334 0 0
8.2334 0 0
8.28149 0 0
8.28149 0 0
8.32959 0 0
8.32959 0 0
8.37769 0 0
8.37769 0 0
8.42578 0 0
8.42578 0 0
8.47388 0 0
8.47388 0 0
8.52197 0 0
8.52197 0 0
8.57007 0 0
8.57007 0 0
8.61816 0 0
8.61816 0 0
8.66626 0 0
8.66626 0 0
8.71436 0 0
8.71436 0 0
8.76245 0 0
8.76245 0 0
8.81055 0 0
8.81055 0 0
8.85864 0 0
8.85864 0 0
8.90674 0 0
8.90674 0 0
8.95483 0 0
8.95483 0 0
9.00293 0 0
9.00293 0 0
9.05103 0 0
9.05103 0 0
9.09912 0 0
9.09912 0 0
9.14722 0 0
9.14722 0 0
9.19531 0 0
9.19531 0 0
9.24341 0 0
9.24341 0 0
9.2915 0 0
9.2915 0 0
9.3396 0 0
9.3396 0 0
9.3877 0 0
9.3877 0 0
9.43579 0 0
9.43579 0 0
9.48389 0 0
9.48389 0 0
9.53198 0 0
9.53198 0 0
9.58008 0 0
9.58008 0 0
9.62817 0 0
9.62817 0 0
9.67627 0 0
9.67627 0 0
9.72437 0 0
9.72437 0 0
9.77246 0 0
9.77246 0 0
9.82056 0 0
9.82056 0 0
9.86865 0 0
9.86865 0 0
9.91675 0 0
9.91675 0 0
9.96484 0 0
9.96484 0 0
10.0129 0 0
10.0129 0 0
10.061 0 0
10.061 0 0
10.1091 0 0
10.1091 0 0
10.1572 0 0
10.1572 0 0
10.2053 0 0
10.2053 0 0
10.2534 0 0
10.2534 0 0
10.3015 0 0
10.3015 0 0
10.3496 0 0
10.3496 0 0
10.3977 0 0
10.3977 0 0
10.4458 0 0
10.4458 0 0
10.4939 0 0
10.4939 0 0
10.542 0 0
10.542 0 0
10.5901 0 0
10.5901 0 0
10.6382 0 0
10.6382 0 0
10.6863 0 0
10.6863 0 0
10.7344 0 0
10.7344 0 0
10.7825 0 0
10.7825 0 0
10.8306 0 0
10.8306 0 0
10.8787 0 0
10.8787 0 0
10.9268 0 0
10.9268 0 0
10.9749 0 0
10.9749 0 0
11.0229 0 0
11.0229 0 0
11.071 0 0
11.071 0 0
11.1191 0 0
11.1191 0 0
11.1672 0 0
11.1672 0 0
11.2153 0 0
11.2153 0 0
11.2634 0 0
11.2634 0 0
11.3115 0 0
11.3115 0 0
11.3596 0 0
11.3596 0 0
11.4077 0 0
11.4077 0 0
11.4558 0 0
11.4558 0 0
11.5039 0 0
11.5039 0 0
11.552 0 0
11.552 0 0
11.6001 0 0
11.6001 0 0
11.6482 0 0
11.6482 0 0
11.6963 0 0
11.6963 0 0
11.7444 0 0
11.7444 0 0
11.7925 0 0
11.7925 0 0
11.8406 0 0
11.8406 0 0
11.8887 0 0
11.8887 0 0
11.9368 0 0
11.9368 0 0
11.9849 0 0
11.9849 0 0
12.033 0 0
12.033 0 0
12.0811 0 0
12.0811 0 0
12.1292 0 0
12.1292 0 0
12.1772 0 0
12.1772 0 0
12.2253 0 0
12.2253 0 0
12.2734 0 0
12.2734 0 0
12.3215 0 0
12.3215 0 0
12.3696 0 0
12.3696 0 0
12.4177 0 0
12.4177 0 0
12.4658 0 0
12.4658 0 0
12.5139 0 0
12.5139 0 0
12.562 0 0
12.562 0 0
12.6101 0 0
12.6101 0 0
12.6582 0 0
12.6582 0 0
12.7063 0 0
12.7063 0 0
12.7544 0 0
12.7544 0 0
12.8025 0 0
12.8025 0 0
12.8506 0 0
12.8506 0 0
12.8987 0 0
12.8987 0 0
12.9468 0 0
12.9468 0 0
12.9949 0 0
12.9949 0 0
13.043 0 0
13.043 0 0
13.0911 0 0
13.0911 0 0
13.1392 0 0
13.1392 0 0
13.1873 0 0
13.1873 0 0
13.2354 0 0
13.2354 0 0
13.2834 0 0
13.2834 0 0
13.3315 0 0
13.3315 0 0
13.3796 0 0
13.3796 0 0
13.4277 0 0
13.4277 0 0
13.4758 0 0
13.4758 0 0
13.5239 0 0
13.5239 0 0
13.572 0 0
13.572 0 0
13.6201 0 0
13.6201 0 0
13.6682 0 0
13.6682 0 0
13.7163 0 0
13.7163 0 0
13.7644 0 0
13.7644 0 0
13.8125 0 0
13.8125 0 0
13.8606 0 0
13.8606 0 0
13.9087 0 0
13.9087 0 0
13.9568 0 0
13.9568 0 0
14.0049 0 0
14.0049 0 0
14.053 0 0
14.053 0 0
14.1011 0 0
14.1011 0 0
14.1492 0 0
14.1492 0 0
14.1973 0 0
14.1973 0 0
14.2454 0 0
14.2454 0 0
14.2935 0 0
14.2935 0 0
14.3416 0 0
14.3416 0 0
14.3896 0 0
14.3896 0 0
14.4377 0 0
14.4377 0 0
14.4858 0 0
14.4858 0 0
14.5339 0 0
14.5339 0 0
14.582 0 0
14.582 0 0
14.6301 0 0
14.6301 0 0
14.6782 0 0
14.6782 0 0
14.7263 0 0
14.7263 0 0
14.7744 0 0
14.7744 0 0
14.8225 0 0
14.8225 0 0
14.8706 0 0
14.8706 0 0
14.9187 0 0
14.9187 0 0
14.9668 0 0
14.9668 0 0
15.0149 0 0
15.0149 0 0
15.063 0 0
15.063 0 0
15.1111 0 0
15.1111 0 0
15.1592 0 0
15.1592 0 0
15.2073 0 0
15.2073 0 0
15.2554 0 0
15.2554 0 0
15.3035 0 0
15.3035 0 0
15.3516 0 0
15.3516 0 0
15.3997 0 0
15.3997 0 0
15.4478 0 0
15.4478 0 0
15.4958 0 0
15.4958 0 0
15.5439 0 0
15.5439 0 0
15.592 0 0
15.592 0 0
15.6401 0 0
15.6401 0 0
15.6882 0 0
15.6882 0 0
15.7363 0 0
15.7363 0 0
15.7844 0 0
15.7844 0 0
15.8325 0 0
15.8325 0 0
15.8806 0 0
15.8806 0 0
15.9287 0 0
15.9287 0 0
15.9768 0 0
15.9768 0 0
16.0249 0 0
16.0249 0 0
16.073 0 0
16.073 0 0
16.1211 0 0
16.1211 0 0
16.1692 0 0
16.1692 0 0
16.2173 0 0
16.2173 0 0
16.2654 0 0
16.2654 0 0
16.3135 0 0
16.3135 0 0
16.3616 0 0
16.3616 0 0
16.4097 0 0
16.4097 0 0
16.4578 0 0
16.4578 0 0
16.5059 0 0
16.5059 0 0
16.554 0 0
16.554 0 0
16.6021 0 0
16.6021 0 0
16.6501 0 0
16.6501 0 0
16.6982 0 0
16.6982 0 0
16.7463 0 0
16.7463 0 0
16.7944 0 0
16.7944 0 0
16.8425 0 0
16.8425 0 0
16.8906 0 0
16.8906 0 0
16.9387 0 0
16.9387 0 0
16.9868 0 0
16.9868 0 0
17.0349 0 0
17.0349 0 0
17.083 0 0
17.083 0 0
17.1311 0 0
17.1311 0 0
17.1792 0 0
17.1792 0 0
17.2273 0 0
17.2273 0 0
17.2754 0 0
17.2754 0 0
17.3235 0 0
17.3235 0 0
17.3716 0 0
17.3716 0 0
17.4197 0 0
17.4197 0 0
17.4678 0 0
17.4678 0 0
17.5159 0 0
17.5159 0 0
17.564 0 0
17.564 0 0
17.6121 0 0
17.6121 0 0
17.6602 0 0
17.6602 0 0
17.7083 0 0
17.7083 0 0
17.7563 0 0
17.7563 0 0
17.8044 0 0
17.8044 0 0
17.8525 0 0
17.8525 0 0
17.9006 0 0
17.9006 0 0
17.9487 0 0
17.9487 0 0
17.9968 0 0
17.9968 0 0
18.0449 0 0
18.0449 0 0
18.093 0 0
18.093 0 0
18.1411 0 0
18.1411 0 0
18.1892 0 0
18.1892 0 0
18.2373 0 0
18.2373 0 0
18.2854 0 0
18.2854 0 0
18.3335 0 0
18.3335 0 0
18.3816 0 0
18.3816 0 0
18.4297 0 0
18.4297 0 0
18.4778 0 0
18.4778 0 0
18.5259 0 0
18.5259 0 0
18.574 0 0
18.574 0 0
18.6221 0 0
18.6221 0 0
18.6702 0 0
18.6702 0 0
18.7183 0 0
18.7183 0 0
18.7664 0 0
18.7664 0 0
18.8145 0 0
18.8145 0 0
18.8625 0 0
18.8625 0 0
18.9106 0 0
18.9106 0 0
18.9587 0 0
18.9587 0 0
19.0068 0 0
19.0068 0 0
19.0549 0 0
19.0549 0 0
19.103 0 0
19.103 0 0
19.1511 0 0
19.1511 0 0
19.1992 0 0
19.1992 0 0
19.2473 0 0
19.2473 0 0
19.2954 0 0
19.2954 0 0
19.3435 0 0
19.3435 0 0
19.3916 0 0
19.3916 0 0
19.4397 0 0
19.4397 0 0
19.4878 0 0
19.4878 0 0
19.5359 0 0
19.5359 0 0
19.584 0 0
19.584 0 0
19.6321 0 0
19.6321 0 0
19.6802 0 0
19.6802 0 0
19.7283 0 0
19.7283 0 0
19.7764 0 0
19.7764 0 0
19.8245 0 0
19.8245 0 0
19.8726 0 0
19.8726 0 0
19.9207 0 0
19.9207 0 0
19.9688 0 0
19.9688 0 0
20.0168 0 0
20.0168 0 0
20.0649 0 0
20.0649 0 0
20.113 0 0
20.113 0 0
20.1611 0 0
20.1611 0 0
20.2092 0 0
20.2092 0 0
20.2573 0 0
20.2573 0 0
20.3054 0 0
20.3054 0 0
20.3535 0 0
20.3535 0 0
20.4016 0 0
20.4016 0 0
20.4497 0 0
20.4497 0 0
20.4978 0 0
20.4978 0 0
20.5459 0 0
20.5459 0 0
20.594 0 0
20.594 0 0
20.6421 0 0
20.6421 0 0
20.6902 0 0
20.6902 0 0
20.7383 0 0
20.7383 0 0
20.7864 0 0
20.7864 0 0
20.8345 0 0
20.8345 0 0
20.8826 0 0
20.8826 0 0
20.9307 0 0
20.9307 0 0
20.9788 0 0
20.9788 0 0
21.0269 0 0
21.0269 0 0
21.075 0 0
21.075 0 0
21.123 0 0
21.123 0 0
21.1711 0 0
21.1711 0 0
21.2192 0 0
21.2192 0 0
21.2673 0 0
21.2673 0 0
21.3154 0 0
21.3154 0 0
21.3635 0 0
21.3635 0 0
21.4116 0 0
[...]
POINT_DATA 4096
SCALARS solution_0 double 1
LOOKUP_TABLE default
5.54268e+10 5.43553e+10 5.43553e+10 5.33616e+10 5.33616e+10 5.24375e+10 5.24375e+10 5.15759e+10 5.15759e+10 5.07706e+10 5.07706e+10 5.00161e+10 5.00161e+10 4.93075e+10 4.93075e+10 4.86405e+10 4.86405e+10 4.80113e+10 4.80113e+10 4.74166e+10 4.74166e+10 4.68532e+10 4.68532e+10 4.63185e+10 4.63185e+10 4.581e+10 4.581e+10 4.53256e+10 4.53256e+10 4.48633e+10 4.48633e+10 4.44212e+10 4.44212e+10 4.39979e+10 4.39979e+10 4.35918e+10 4.35918e+10 4.32016e+10 4.32016e+10 4.28262e+10 4.28262e+10 4.24645e+10 4.24645e+10 4.21154e+10 4.21154e+10 4.1778e+10 4.1778e+10 4.14516e+10 4.14516e+10 4.11354e+10 4.11354e+10 4.08286e+10 4.08286e+10 4.05307e+10 4.05307e+10 4.02411e+10 4.02411e+10 3.99591e+10 3.99591e+10 3.96845e+10 3.96845e+10 3.94165e+10 3.94165e+10 3.9155e+10 3.9155e+10 3.88994e+10 3.88994e+10 3.86494e+10 3.86494e+10 3.84046e+10 3.84046e+10 3.81649e+10 3.81649e+10 3.79298e+10 3.79298e+10 3.76991e+10 3.76991e+10 3.74726e+10 3.74726e+10 3.725e+10 3.725e+10 3.70312e+10 3.70312e+10 3.68159e+10 3.68159e+10 3.66039e+10 3.66039e+10 3.63952e+10 3.63952e+10 3.61894e+10 3.61894e+10 3.59865e+10 3.59865e+10 3.57863e+10 3.57863e+10 3.55888e+10 3.55888e+10 3.53937e+10 3.53937e+10 3.5201e+10 3.5201e+10 3.50105e+10 3.50105e+10 3.48222e+10 3.48222e+10 3.46359e+10 3.46359e+10 3.44517e+10 3.44517e+10 3.42693e+10 3.42693e+10 3.40888e+10 3.40888e+10 3.391e+10 3.391e+10 3.37328e+10 3.37328e+10 3.35574e+10 3.35574e+10 3.33834e+10 3.33834e+10 3.3211e+10 3.3211e+10 3.304e+10 3.304e+10 3.28704e+10 3.28704e+10 3.27022e+10 3.27022e+10 3.25353e+10 3.25353e+10 3.23696e+10 3.23696e+10 3.22052e+10 3.22052e+10 3.2042e+10 3.2042e+10 3.18799e+10 3.18799e+10 3.1719e+10 3.1719e+10 3.15592e+10 3.15592e+10 3.14004e+10 3.14004e+10 3.12427e+10 3.12427e+10 3.1086e+10 3.1086e+10 3.09303e+10 3.09303e+10 3.07755e+10 3.07755e+10 3.06217e+10 3.06217e+10 3.04689e+10 3.04689e+10 3.03169e+10 3.03169e+10 3.01658e+10 3.01658e+10 3.00157e+10 3.00157e+10 2.98663e+10 2.98663e+10 2.97178e+10 2.97178e+10 2.95702e+10 2.95702e+10 2.94233e+10 2.94233e+10 2.92772e+10 2.92772e+10 2.9132e+10 2.9132e+10 2.89875e+10 2.89875e+10 2.88438e+10 2.88438e+10 2.87008e+10 2.87008e+10 2.85586e+10 2.85586e+10 2.84171e+10 2.84171e+10 2.82763e+10 2.82763e+10 2.81362e+10 2.81362e+10 2.79969e+10 2.79969e+10 2.78583e+10 2.78583e+10 2.77203e+10 2.77203e+10 2.7583e+10 2.7583e+10 2.74465e+10 2.74465e+10 2.73106e+10 2.73106e+10 2.71753e+10 2.71753e+10 2.70407e+10 2.70407e+10 2.69068e+10 2.69068e+10 2.67735e+10 2.67735e+10 2.66409e+10 2.66409e+10 2.65089e+10 2.65089e+10 2.63775e+10 2.63775e+10 2.62468e+10 2.62468e+10 2.61167e+10 2.61167e+10 2.59872e+10 2.59872e+10 2.58583e+10 2.58583e+10 2.57301e+10 2.57301e+10 2.56024e+10 2.56024e+10 2.54754e+10 2.54754e+10 2.5349e+10 2.5349e+10 2.52231e+10 2.52231e+10 2.50979e+10 2.50979e+10 2.49732e+10 2.49732e+10 2.48492e+10 2.48492e+10 2.47257e+10 2.47257e+10 2.46028e+10 2.46028e+10 2.44805e+10 2.44805e+10 2.43588e+10 2.43588e+10 2.42376e+10 2.42376e+10 2.41171e+10 2.41171e+10 2.39971e+10 2.39971e+10 2.38776e+10 2.38776e+10 2.37587e+10 2.37587e+10 2.36404e+10 2.36404e+10 2.35227e+10 2.35227e+10 2.34055e+10 2.34055e+10 2.32889e+10 2.32889e+10 2.31728e+10 2.31728e+10 2.30572e+10 2.30572e+10 2.29423e+10 2.29423e+10 2.28278e+10 2.28278e+10 2.27139e+10 2.27139e+10 2.26006e+10 2.26006e+10 2.24878e+10 2.24878e+10 2.23755e+10 2.23755e+10 2.22638e+10 2.22638e+10 2.21526e+10 2.21526e+10 2.2042e+10 2.2042e+10 2.19318e+10 2.19318e+10 2.18222e+10 2.18222e+10 2.17132e+10 2.17132e+10 2.16046e+10 2.16046e+10 2.14966e+10 2.14966e+10 2.13891e+10 2.13891e+10 2.12821e+10 2.12821e+10 2.11757e+10 2.11757e+10 2.10697e+10 2.10697e+10 2.09643e+10 2.09643e+10 2.08594e+10 2.08594e+10 2.0755e+10 2.0755e+10 2.06511e+10 2.06511e+10 2.05477e+10 2.05477e+10 2.04448e+10 2.04448e+10 2.03424e+10 2.03424e+10 2.02405e+10 2.02405e+10 2.01391e+10 2.01391e+10 2.00382e+10 2.00382e+10 1.99379e+10 1.99379e+10 1.9838e+10 1.9838e+10 1.97386e+10 1.97386e+10 1.96396e+10 1.96396e+10 1.95412e+10 1.95412e+10 1.94433e+10 1.94433e+10 1.93458e+10 1.93458e+10 1.92488e+10 1.92488e+10 1.91524e+10 1.91524e+10 1.90563e+10 1.90563e+10 1.89608e+10 1.89608e+10 1.88657e+10 1.88657e+10 1.87712e+10 1.87712e+10 1.8677e+10 1.8677e+10 1.85834e+10 1.85834e+10 1.84902e+10 1.84902e+10 1.83975e+10 1.83975e+10 1.83053e+10 1.83053e+10 1.82135e+10 1.82135e+10 1.81222e+10 1.81222e+10 1.80313e+10 1.80313e+10 1.79409e+10 1.79409e+10 1.78509e+10 1.78509e+10 1.77614e+10 1.77614e+10 1.76724e+10 1.76724e+10 1.75838e+10 1.75838e+10 1.74957e+10 1.74957e+10 1.7408e+10 1.7408e+10 1.73207e+10 1.73207e+10 1.72339e+10 1.72339e+10 1.71475e+10 1.71475e+10 1.70616e+10 1.70616e+10 1.69761e+10 1.69761e+10 1.6891e+10 1.6891e+10 1.68064e+10 1.68064e+10 1.67222e+10 1.67222e+10 1.66384e+10 1.66384e+10 1.6555e+10 1.6555e+10 1.64721e+10 1.64721e+10 1.63896e+10 1.63896e+10 1.63076e+10 1.63076e+10 1.62259e+10 1.62259e+10 1.61447e+10 1.61447e+10 1.60638e+10 1.60638e+10 1.59834e+10 1.59834e+10 1.59034e+10 1.59034e+10 1.58239e+10 1.58239e+10 1.57447e+10 1.57447e+10 1.56659e+10 1.56659e+10 1.55876e+10 1.55876e+10 1.55096e+10 1.55096e+10 1.5432e+10 1.5432e+10 1.53549e+10 1.53549e+10 1.52781e+10 1.52781e+10 1.52017e+10 1.52017e+10 1.51258e+10 1.51258e+10 1.50502e+10 1.50502e+10 1.4975e+10 1.4975e+10 1.49002e+10 1.49002e+10 1.48258e+10 1.48258e+10 1.47518e+10 1.47518e+10 1.46781e+10 1.46781e+10 1.46049e+10 1.46049e+10 1.4532e+10 1.4532e+10 1.44595e+10 1.44595e+10 1.43873e+10 1.43873e+10 1.43156e+10 1.43156e+10 1.42442e+10 1.42442e+10 1.41732e+10 1.41732e+10 1.41025e+10 1.41025e+10 1.40322e+10 1.40322e+10 1.39623e+10 1.39623e+10 1.38928e+10 1.38928e+10 1.38236e+10 1.38236e+10 1.37547e+10 1.37547e+10 1.36863e+10 1.36863e+10 1.36182e+10 1.36182e+10 1.35504e+10 1.35504e+10 1.3483e+10 1.3483e+10 1.34159e+10 1.34159e+10 1.33492e+10 1.33492e+10 1.32828e+10 1.32828e+10 1.32168e+10 1.32168e+10 1.31512e+10 1.31512e+10 1.30858e+10 1.30858e+10 1.30208e+10 1.30208e+10 1.29562e+10 1.29562e+10 1.28919e+10 1.28919e+10 1.28279e+10 1.28279e+10 1.27642e+10 1.27642e+10 1.27009e+10 1.27009e+10 1.26379e+10 1.26379e+10 1.25753e+10 1.25753e+10 1.25129e+10 1.25129e+10 1.24509e+10 1.24509e+10 1.23892e+10 1.23892e+10 1.23279e+10 1.23279e+10 1.22668e+10 1.22668e+10 1.22061e+10 1.22061e+10 1.21457e+10 1.21457e+10 1.20856e+10 1.20856e+10 1.20258e+10 1.20258e+10 1.19663e+10 1.19663e+10 1.19072e+10 1.19072e+10 1.18483e+10 1.18483e+10 1.17898e+10 1.17898e+10 1.17315e+10 1.17315e+10 1.16736e+10 1.16736e+10 1.1616e+10 1.1616e+10 1.15586e+10 1.15586e+10 1.15016e+10 1.15016e+10 1.14449e+10 1.14449e+10 1.13884e+10 1.13884e+10 1.13323e+10 1.13323e+10 1.12764e+10 1.12764e+10 1.12208e+10 1.12208e+10 1.11656e+10 1.11656e+10 1.11106e+10 1.11106e+10 1.10559e+10 1.10559e+10 1.10015e+10 1.10015e+10 1.09473e+10 1.09473e+10 1.08935e+10 1.08935e+10 1.08399e+10 1.08399e+10 1.07866e+10 1.07866e+10 1.07336e+10 1.07336e+10 1.06808e+10 1.06808e+10 1.06284e+10 1.06284e+10 1.05762e+10 1.05762e+10 1.05242e+10 1.05242e+10 1.04726e+10 1.04726e+10 1.04212e+10 1.04212e+10 1.03701e+10 1.03701e+10 1.03192e+10 1.03192e+10 1.02686e+10 1.02686e+10 1.02183e+10 1.02183e+10 1.01682e+10 1.01682e+10 1.01184e+10 1.01184e+10 1.00688e+10 1.00688e+10 1.00195e+10 1.00195e+10 9.97049e+09 9.97049e+09 9.9217e+09 9.9217e+09 9.87316e+09 9.87316e+09 9.82488e+09 9.82488e+09 9.77684e+09 9.77684e+09 9.72905e+09 9.72905e+09 9.68151e+09 9.68151e+09 9.63421e+09 9.63421e+09 9.58716e+09 9.58716e+09 9.54035e+09 9.54035e+09 9.49378e+09 9.49378e+09 9.44745e+09 9.44745e+09 9.40136e+09 9.40136e+09 9.3555e+09 9.3555e+09 9.30989e+09 9.30989e+09 9.2645e+09 9.2645e+09 9.21935e+09 9.21935e+09 9.17443e+09 9.17443e+09 9.12975e+09 9.12975e+09 9.08529e+09 9.08529e+09 9.04106e+09 9.04106e+09 8.99706e+09 8.99706e+09 8.95328e+09 8.95328e+09 8.90973e+09 8.90973e+09 8.8664e+09 8.8664e+09 8.82329e+09 8.82329e+09 8.7804e+09 8.7804e+09 8.73773e+09 8.73773e+09 8.69528e+09 8.69528e+09 8.65305e+09 8.65305e+09 8.61103e+09 8.61103e+09 8.56923e+09 8.56923e+09 8.52764e+09 8.52764e+09 8.48626e+09 8.48626e+09 8.44509e+09 8.44509e+09 8.40414e+09 8.40414e+09 8.36339e+09 8.36339e+09 8.32285e+09 8.32285e+09 8.28251e+09 8.28251e+09 8.24238e+09 8.24238e+09 8.20245e+09 8.20245e+09 8.16273e+09 8.16273e+09 8.12321e+09 8.12321e+09 8.08388e+09 8.08388e+09 8.04476e+09 8.04476e+09 8.00583e+09 8.00583e+09 7.96711e+09 7.96711e+09 7.92857e+09 7.92857e+09 7.89024e+09 7.89024e+09 7.85209e+09 7.85209e+09 7.81414e+09 7.81414e+09 7.77638e+09 7.77638e+09 7.73881e+09 7.73881e+09 7.70143e+09 7.70143e+09 7.66424e+09 7.66424e+09 7.62724e+09 7.62724e+09 7.59042e+09 7.59042e+09 7.55379e+09 7.55379e+09 7.51734e+09 7.51734e+09 7.48107e+09 7.48107e+09 7.44499e+09 7.44499e+09 7.40908e+09 7.40908e+09 7.37336e+09 7.37336e+09 7.33781e+09 7.33781e+09 7.30245e+09 7.30245e+09 7.26726e+09 7.26726e+09 7.23224e+09 7.23224e+09 7.1974e+09 7.1974e+09 7.16274e+09 7.16274e+09 7.12825e+09 7.12825e+09 7.09393e+09 7.09393e+09 7.05978e+09 7.05978e+09 7.0258e+09 7.0258e+09 6.99199e+09 6.99199e+09 6.95834e+09 6.95834e+09 6.92487e+09 6.92487e+09 6.89156e+09 6.89156e+09 6.85841e+09 6.85841e+09 6.82543e+09 6.82543e+09 6.79262e+09 6.79262e+09 6.75996e+09 6.75996e+09 6.72747e+09 6.72747e+09 6.69514e+09 6.69514e+09 6.66296e+09 6.66296e+09 6.63095e+09 6.63095e+09 6.59909e+09 6.59909e+09 6.56739e+09 6.56739e+09 6.53585e+09 6.53585e+09 6.50446e+09 6.50446e+09 6.47323e+09 6.47323e+09 6.44215e+09 6.44215e+09 6.41122e+09 6.41122e+09 6.38045e+09 6.38045e+09 6.34982e+09 6.34982e+09 6.31935e+09 6.31935e+09 6.28902e+09 6.28902e+09 6.25884e+09 6.25884e+09 6.22881e+09 6.22881e+09 6.19893e+09 6.19893e+09 6.16919e+09 6.16919e+09 6.1396e+09 6.1396e+09 6.11015e+09 6.11015e+09 6.08084e+09 6.08084e+09 6.05168e+09 6.05168e+09 6.02266e+09 6.02266e+09 5.99378e+09 5.99378e+09 5.96504e+09 5.96504e+09 5.93644e+09 5.93644e+09 5.90798e+09 5.90798e+09 5.87965e+09 5.87965e+09 5.85146e+09 5.85146e+09 5.82341e+09 5.82341e+09 5.7955e+09 5.7955e+09 5.76772e+09 5.76772e+09 5.74007e+09 5.74007e+09 5.71256e+09 5.71256e+09 5.68517e+09 5.68517e+09 5.65793e+09 5.65793e+09 5.63081e+09 5.63081e+09 5.60382e+09 5.60382e+09 5.57696e+09 5.57696e+09 5.55023e+09 5.55023e+09 5.52363e+09 5.52363e+09 5.49715e+09 5.49715e+09 5.4708e+09 5.4708e+09 5.44458e+09 5.44458e+09 5.41848e+09 5.41848e+09 5.39251e+09 5.39251e+09 5.36666e+09 5.36666e+09 5.34094e+09 5.34094e+09 5.31533e+09 5.31533e+09 5.28985e+09 5.28985e+09 5.26449e+09 5.26449e+09 5.23925e+09 5.23925e+09 5.21413e+09 5.21413e+09 5.18913e+09 5.18913e+09 5.16425e+09 5.16425e+09 5.13948e+09 5.13948e+09 5.11483e+09 5.11483e+09 5.0903e+09 5.0903e+09 5.06588e+09 5.06588e+09 5.04158e+09 5.04158e+09 5.0174e+09 5.0174e+09 4.99332e+09 4.99332e+09 4.96936e+09 4.96936e+09 4.94552e+09 4.94552e+09 4.92178e+09 4.92178e+09 4.89816e+09 4.89816e+09 4.87465e+09 4.87465e+09 4.85124e+09 4.85124e+09 4.82795e+09 4.82795e+09 4.80477e+09 4.80477e+09 4.78169e+09 4.78169e+09 4.75872e+09 4.75872e+09 4.73586e+09 4.73586e+09 4.7131e+09 4.7131e+09 4.69046e+09 4.69046e+09 4.66791e+09 4.66791e+09 4.64547e+09 4.64547e+09 4.62314e+09 4.62314e+09 4.60091e+09 4.60091e+09 4.57878e+09 4.57878e+09 4.55675e+09 4.55675e+09 4.53483e+09 4.53483e+09 4.51301e+09 4.51301e+09 4.49128e+09 4.49128e+09 4.46966e+09 4.46966e+09 4.44814e+09 4.44814e+09 4.42672e+09 4.42672e+09 4.40539e+09 4.40539e+09 4.38417e+09 4.38417e+09 4.36304e+09 4.36304e+09 4.342e+09 4.342e+09 4.32107e+09 4.32107e+09 4.30023e+09 4.30023e+09 4.27949e+09 4.27949e+09 4.25884e+09 4.25884e+09 4.23828e+09 4.23828e+09 4.21782e+09 4.21782e+09 4.19745e+09 4.19745e+09 4.17718e+09 4.17718e+09 4.15699e+09 4.15699e+09 4.1369e+09 4.1369e+09 4.1169e+09 4.1169e+09 4.09699e+09 4.09699e+09 4.07718e+09 4.07718e+09 4.05745e+09 4.05745e+09 4.03781e+09 4.03781e+09 4.01826e+09 4.01826e+09 3.99879e+09 3.99879e+09 3.97942e+09 3.97942e+09 3.96013e+09 3.96013e+09 3.94093e+09 3.94093e+09 3.92182e+09 3.92182e+09 3.90279e+09 3.90279e+09 3.88385e+09 3.88385e+09 3.86499e+09 3.86499e+09 3.84622e+09 3.84622e+09 3.82753e+09 3.82753e+09 3.80893e+09 3.80893e+09 3.79041e+09 3.79041e+09 3.77197e+09 3.77197e+09 3.75361e+09 3.75361e+09 3.73534e+09 3.73534e+09 3.71714e+09 3.71714e+09 3.69903e+09 3.69903e+09 3.681e+09 3.681e+09 3.66305e+09 3.66305e+09 3.64518e+09 3.64518e+09 3.62739e+09 3.62739e+09 3.60967e+09 3.60967e+09 3.59204e+09 3.59204e+09 3.57448e+09 3.57448e+09 3.557e+09 3.557e+09 3.5396e+09 3.5396e+09 3.52228e+09 3.52228e+09 3.50503e+09 3.50503e+09 3.48786e+09 3.48786e+09 3.47076e+09 3.47076e+09 3.45374e+09 3.45374e+09 3.43679e+09 3.43679e+09 3.41992e+09 3.41992e+09 3.40312e+09 3.40312e+09 3.3864e+09 3.3864e+09 3.36974e+09 3.36974e+09 3.35317e+09 3.35317e+09 3.33666e+09 3.33666e+09 3.32023e+09 3.32023e+09 3.30386e+09 3.30386e+09 3.28757e+09 3.28757e+09 3.27135e+09 3.27135e+09 3.2552e+09 3.2552e+09 3.23912e+09 3.23912e+09 3.22311e+09 3.22311e+09 3.20717e+09 3.20717e+09 3.1913e+09 3.1913e+09 3.1755e+09 3.1755e+09 3.15977e+09 3.15977e+09 3.1441e+09 3.1441e+09 3.1285e+09 3.1285e+09 3.11297e+09 3.11297e+09 3.09751e+09 3.09751e+09 3.08211e+09 3.08211e+09 3.06678e+09 3.06678e+09 3.05151e+09 3.05151e+09 3.03631e+09 3.03631e+09 3.02118e+09 3.02118e+09 3.00611e+09 3.00611e+09 2.9911e+09 2.9911e+09 2.97616e+09 2.97616e+09 2.96129e+09 2.96129e+09 2.94647e+09 2.94647e+09 2.93172e+09 2.93172e+09 2.91704e+09 2.91704e+09 2.90241e+09 2.90241e+09 2.88785e+09 2.88785e+09 2.87335e+09 2.87335e+09 2.85891e+09 2.85891e+09 2.84453e+09 2.84453e+09 2.83021e+09 2.83021e+09 2.81596e+09 2.81596e+09 2.80176e+09 2.80176e+09 2.78763e+09 2.78763e+09 2.77355e+09 2.77355e+09 2.75953e+09 2.75953e+09 2.74558e+09 2.74558e+09 2.73168e+09 2.73168e+09 2.71784e+09 2.71784e+09 2.70406e+09 2.70406e+09 2.69033e+09 2.69033e+09 2.67667e+09 2.67667e+09 2.66306e+09 2.66306e+09 2.64951e+09 2.64951e+09 2.63601e+09 2.63601e+09 2.62257e+09 2.62257e+09 2.60919e+09 2.60919e+09 2.59586e+09 2.59586e+09 2.58259e+09 2.58259e+09 2.56938e+09 2.56938e+09 2.55622e+09 2.55622e+09 2.54311e+09 2.54311e+09 2.53006e+09 2.53006e+09 2.51706e+09 2.51706e+09 2.50412e+09 2.50412e+09 2.49123e+09 2.49123e+09 2.47839e+09 2.47839e+09 2.46561e+09 2.46561e+09 2.45288e+09 2.45288e+09 2.4402e+09 2.4402e+09 2.42758e+09 2.42758e+09 2.415e+09 2.415e+09 2.40248e+09 2.40248e+09 2.39001e+09 2.39001e+09 2.3776e+09 2.3776e+09 2.36523e+09 2.36523e+09 2.35291e+09 2.35291e+09 2.34065e+09 2.34065e+09 2.32843e+09 2.32843e+09 2.31626e+09 2.31626e+09 2.30415e+09 2.30415e+09 2.29208e+09 2.29208e+09 2.28006e+09 2.28006e+09 2.2681e+09 2.2681e+09 2.25618e+09 2.25618e+09 2.24431e+09 2.24431e+09 2.23248e+09 2.23248e+09 2.22071e+09 2.22071e+09 2.20898e+09 2.20898e+09 2.1973e+09 2.1973e+09 2.18567e+09 2.18567e+09 2.17409e+09 2.17409e+09 2.16255e+09 2.16255e+09 2.15106e+09 2.15106e+09 2.13961e+09 2.13961e+09 2.12821e+09 2.12821e+09 2.11686e+09 2.11686e+09 2.10556e+09 2.10556e+09 2.09429e+09 2.09429e+09 2.08308e+09 2.08308e+09 2.07191e+09 2.07191e+09 2.06078e+09 2.06078e+09 2.0497e+09 2.0497e+09 2.03866e+09 2.03866e+09 2.02767e+09 2.02767e+09 2.01672e+09 2.01672e+09 2.00582e+09 2.00582e+09 1.99496e+09 1.99496e+09 1.98414e+09 1.98414e+09 1.97337e+09 1.97337e+09 1.96263e+09 1.96263e+09 1.95194e+09 1.95194e+09 1.9413e+09 1.9413e+09 1.93069e+09 1.93069e+09 1.92013e+09 1.92013e+09 1.90961e+09 1.90961e+09 1.89913e+09 1.89913e+09 1.8887e+09 1.8887e+09 1.8783e+09 1.8783e+09 1.86795e+09 1.86795e+09 1.85763e+09 1.85763e+09 1.84736e+09 1.84736e+09 1.83713e+09 1.83713e+09 1.82694e+09 1.82694e+09 1.81678e+09 1.81678e+09 1.80667e+09 1.80667e+09 1.7966e+09 1.7966e+09 1.78657e+09 1.78657e+09 1.77657e+09 1.77657e+09 1.76662e+09 1.76662e+09 1.75671e+09 1.75671e+09 1.74683e+09 1.74683e+09 1.73699e+09 1.73699e+09 1.72719e+09 1.72719e+09 1.71743e+09 1.71743e+09 1.70771e+09 1.70771e+09 1.69802e+09 1.69802e+09 1.68838e+09 1.68838e+09 1.67877e+09 1.67877e+09 1.66919e+09 1.66919e+09 1.65966e+09 1.65966e+09 1.65016e+09 1.65016e+09 1.6407e+09 1.6407e+09 1.63127e+09 1.63127e+09 1.62189e+09 1.62189e+09 1.61253e+09 1.61253e+09 1.60322e+09 1.60322e+09 1.59394e+09 1.59394e+09 1.5847e+09 1.5847e+09 1.57549e+09 1.57549e+09 1.56631e+09 1.56631e+09 1.55718e+09 1.55718e+09 1.54807e+09 1.54807e+09 1.53901e+09 1.53901e+09 1.52997e+09 1.52997e+09 1.52098e+09 1.52098e+09 1.51201e+09 1.51201e+09 1.50308e+09 1.50308e+09 1.49419e+09 1.49419e+09 1.48533e+09 1.48533e+09 1.4765e+09 1.4765e+09 1.46771e+09 1.46771e+09 1.45895e+09 1.45895e+09 1.45022e+09 1.45022e+09 1.44153e+09 1.44153e+09 1.43287e+09 1.43287e+09 1.42424e+09 1.42424e+09 1.41565e+09 1.41565e+09 1.40709e+09 1.40709e+09 1.39856e+09 1.39856e+09 1.39006e+09 1.39006e+09 1.3816e+09 1.3816e+09 1.37316e+09 1.37316e+09 1.36476e+09 1.36476e+09 1.35639e+09 1.35639e+09 1.34806e+09 1.34806e+09 1.33975e+09 1.33975e+09 1.33147e+09 1.33147e+09 1.32323e+09 1.32323e+09 1.31502e+09 1.31502e+09 1.30684e+09 1.30684e+09 1.29869e+09 1.29869e+09 1.29057e+09 1.29057e+09 1.28248e+09 1.28248e+09 1.27442e+09 1.27442e+09 1.26639e+09 1.26639e+09 1.25839e+09 1.25839e+09 1.25042e+09 1.25042e+09 1.24248e+09 1.24248e+09 1.23457e+09 1.23457e+09 1.22669e+09 1.22669e+09 1.21884e+09 1.21884e+09 1.21101e+09 1.21101e+09 1.20322e+09 1.20322e+09 1.19546e+09 1.19546e+09 1.18772e+09 1.18772e+09 1.18002e+09 1.18002e+09 1.17234e+09 1.17234e+09 1.16469e+09 1.16469e+09 1.15707e+09 1.15707e+09 1.14948e+09 1.14948e+09 1.14191e+09 1.14191e+09 1.13438e+09 1.13438e+09 1.12687e+09 1.12687e+09 1.11939e+09 1.11939e+09 1.11193e+09 1.11193e+09 1.10451e+09 1.10451e+09 1.09711e+09 1.09711e+09 1.08974e+09 1.08974e+09 1.08239e+09 1.08239e+09 1.07507e+09 1.07507e+09 1.06778e+09 1.06778e+09 1.06052e+09 1.06052e+09 1.05328e+09 1.05328e+09 1.04607e+09 1.04607e+09 1.03889e+09 1.03889e+09 1.03173e+09 1.03173e+09 1.0246e+09 1.0246e+09 1.01749e+09 1.01749e+09 1.01041e+09 1.01041e+09 1.00336e+09 1.00336e+09 9.96329e+08 9.96329e+08 9.89327e+08 9.89327e+08 9.82349e+08 9.82349e+08 9.75397e+08 9.75397e+08 9.6847e+08 9.6847e+08 9.61569e+08 9.61569e+08 9.54692e+08 9.54692e+08 9.47841e+08 9.47841e+08 9.41014e+08 9.41014e+08 9.34212e+08 9.34212e+08 9.27434e+08 9.27434e+08 9.20681e+08 9.20681e+08 9.13953e+08 9.13953e+08 9.07248e+08 9.07248e+08 9.00568e+08 9.00568e+08 8.93912e+08 8.93912e+08 8.8728e+08 8.8728e+08 8.80671e+08 8.80671e+08 8.74087e+08 8.74087e+08 8.67526e+08 8.67526e+08 8.60988e+08 8.60988e+08 8.54475e+08 8.54475e+08 8.47984e+08 8.47984e+08 8.41517e+08 8.41517e+08 8.35073e+08 8.35073e+08 8.28651e+08 8.28651e+08 8.22253e+08 8.22253e+08 8.15878e+08 8.15878e+08 8.09525e+08 8.09525e+08 8.03195e+08 8.03195e+08 7.96888e+08 7.96888e+08 7.90603e+08 7.90603e+08 7.84341e+08 7.84341e+08 7.78101e+08 7.78101e+08 7.71882e+08 7.71882e+08 7.65687e+08 7.65687e+08 7.59513e+08 7.59513e+08 7.5336e+08 7.5336e+08 7.4723e+08 7.4723e+08 7.41122e+08 7.41122e+08 7.35035e+08 7.35035e+08 7.28969e+08 7.28969e+08 7.22925e+08 7.22925e+08 7.16903e+08 7.16903e+08 7.10901e+08 7.10901e+08 7.04921e+08 7.04921e+08 6.98962e+08 6.98962e+08 6.93024e+08 6.93024e+08 6.87106e+08 6.87106e+08 6.8121e+08 6.8121e+08 6.75334e+08 6.75334e+08 6.69479e+08 6.69479e+08 6.63645e+08 6.63645e+08 6.57831e+08 6.57831e+08 6.52037e+08 6.52037e+08 6.46264e+08 6.46264e+08 6.4051e+08 6.4051e+08 6.34777e+08 6.34777e+08 6.29064e+08 6.29064e+08 6.23371e+08 6.23371e+08 6.17698e+08 6.17698e+08 6.12045e+08 6.12045e+08 6.06411e+08 6.06411e+08 6.00797e+08 6.00797e+08 5.95202e+08 5.95202e+08 5.89627e+08 5.89627e+08 5.84072e+08 5.84072e+08 5.78535e+08 5.78535e+08 5.73018e+08 5.73018e+08 5.6752e+08 5.6752e+08 5.62041e+08 5.62041e+08 5.56581e+08 5.56581e+08 5.5114e+08 5.5114e+08 5.45718e+08 5.45718e+08 5.40315e+08 5.40315e+08 5.3493e+08 5.3493e+08 5.29564e+08 5.29564e+08 5.24216e+08 5.24216e+08 5.18887e+08 5.18887e+08 5.13576e+08 5.13576e+08 5.08284e+08 5.08284e+08 5.03009e+08 5.03009e+08 4.97753e+08 4.97753e+08 4.92515e+08 4.92515e+08 4.87295e+08 4.87295e+08 4.82093e+08 4.82093e+08 4.76909e+08 4.76909e+08 4.71742e+08 4.71742e+08 4.66594e+08 4.66594e+08 4.61462e+08 4.61462e+08 4.56349e+08 4.56349e+08 4.51253e+08 4.51253e+08 4.46174e+08 4.46174e+08 4.41113e+08 4.41113e+08 4.36069e+08 4.36069e+08 4.31042e+08 4.31042e+08 4.2