# vtk DataFile Version 3.0
#This file was generated by the deal.II library on 2020/9/6 at 3:46:55
ASCII
DATASET UNSTRUCTURED_GRID

POINTS 4096 double
1.5 0 0
1.5481 0 0
1.5481 0 0
1.59619 0 0
1.59619 0 0
1.64429 0 0
1.64429 0 0
1.69238 0 0
1.69238 0 0
1.74048 0 0
1.74048 0 0
1.78857 0 0
1.78857 0 0
1.83667 0 0
1.83667 0 0
1.88477 0 0
1.88477 0 0
1.93286 0 0
1.93286 0 0
1.98096 0 0
1.98096 0 0
2.02905 0 0
2.02905 0 0
2.07715 0 0
2.07715 0 0
2.12524 0 0
2.12524 0 0
2.17334 0 0
2.17334 0 0
2.22144 0 0
2.22144 0 0
2.26953 0 0
2.26953 0 0
2.31763 0 0
2.31763 0 0
2.36572 0 0
2.36572 0 0
2.41382 0 0
2.41382 0 0
2.46191 0 0
2.46191 0 0
2.51001 0 0
2.51001 0 0
2.55811 0 0
2.55811 0 0
2.6062 0 0
2.6062 0 0
2.6543 0 0
2.6543 0 0
2.70239 0 0
2.70239 0 0
2.75049 0 0
2.75049 0 0
2.79858 0 0
2.79858 0 0
2.84668 0 0
2.84668 0 0
2.89478 0 0
2.89478 0 0
2.94287 0 0
2.94287 0 0
2.99097 0 0
2.99097 0 0
3.03906 0 0
3.03906 0 0
3.08716 0 0
3.08716 0 0
3.13525 0 0
3.13525 0 0
3.18335 0 0
3.18335 0 0
3.23145 0 0
3.23145 0 0
3.27954 0 0
3.27954 0 0
3.32764 0 0
3.32764 0 0
3.37573 0 0
3.37573 0 0
3.42383 0 0
3.42383 0 0
3.47192 0 0
3.47192 0 0
3.52002 0 0
3.52002 0 0
3.56812 0 0
3.56812 0 0
3.61621 0 0
3.61621 0 0
3.66431 0 0
3.66431 0 0
3.7124 0 0
3.7124 0 0
3.7605 0 0
3.7605 0 0
3.80859 0 0
3.80859 0 0
3.85669 0 0
3.85669 0 0
3.90479 0 0
3.90479 0 0
3.95288 0 0
3.95288 0 0
4.00098 0 0
4.00098 0 0
4.04907 0 0
4.04907 0 0
4.09717 0 0
4.09717 0 0
4.14526 0 0
4.14526 0 0
4.19336 0 0
4.19336 0 0
4.24146 0 0
4.24146 0 0
4.28955 0 0
4.28955 0 0
4.33765 0 0
4.33765 0 0
4.38574 0 0
4.38574 0 0
4.43384 0 0
4.43384 0 0
4.48193 0 0
4.48193 0 0
4.53003 0 0
4.53003 0 0
4.57812 0 0
4.57812 0 0
4.62622 0 0
4.62622 0 0
4.67432 0 0
4.67432 0 0
4.72241 0 0
4.72241 0 0
4.77051 0 0
4.77051 0 0
4.8186 0 0
4.8186 0 0
4.8667 0 0
4.8667 0 0
4.91479 0 0
4.91479 0 0
4.96289 0 0
4.96289 0 0
5.01099 0 0
5.01099 0 0
5.05908 0 0
5.05908 0 0
5.10718 0 0
5.10718 0 0
5.15527 0 0
5.15527 0 0
5.20337 0 0
5.20337 0 0
5.25146 0 0
5.25146 0 0
5.29956 0 0
5.29956 0 0
5.34766 0 0
5.34766 0 0
5.39575 0 0
5.39575 0 0
5.44385 0 0
5.44385 0 0
5.49194 0 0
5.49194 0 0
5.54004 0 0
5.54004 0 0
5.58813 0 0
5.58813 0 0
5.63623 0 0
5.63623 0 0
5.68433 0 0
5.68433 0 0
5.73242 0 0
5.73242 0 0
5.78052 0 0
5.78052 0 0
5.82861 0 0
5.82861 0 0
5.87671 0 0
5.87671 0 0
5.9248 0 0
5.9248 0 0
5.9729 0 0
5.9729 0 0
6.021 0 0
6.021 0 0
6.06909 0 0
6.06909 0 0
6.11719 0 0
6.11719 0 0
6.16528 0 0
6.16528 0 0
6.21338 0 0
6.21338 0 0
6.26147 0 0
6.26147 0 0
6.30957 0 0
6.30957 0 0
6.35767 0 0
6.35767 0 0
6.40576 0 0
6.40576 0 0
6.45386 0 0
6.45386 0 0
6.50195 0 0
6.50195 0 0
6.55005 0 0
6.55005 0 0
6.59814 0 0
6.59814 0 0
6.64624 0 0
6.64624 0 0
6.69434 0 0
6.69434 0 0
6.74243 0 0
6.74243 0 0
6.79053 0 0
6.79053 0 0
6.83862 0 0
6.83862 0 0
6.88672 0 0
6.88672 0 0
6.93481 0 0
6.93481 0 0
6.98291 0 0
6.98291 0 0
7.03101 0 0
7.03101 0 0
7.0791 0 0
7.0791 0 0
7.1272 0 0
7.1272 0 0
7.17529 0 0
7.17529 0 0
7.22339 0 0
7.22339 0 0
7.27148 0 0
7.27148 0 0
7.31958 0 0
7.31958 0 0
7.36768 0 0
7.36768 0 0
7.41577 0 0
7.41577 0 0
7.46387 0 0
7.46387 0 0
7.51196 0 0
7.51196 0 0
7.56006 0 0
7.56006 0 0
7.60815 0 0
7.60815 0 0
7.65625 0 0
7.65625 0 0
7.70435 0 0
7.70435 0 0
7.75244 0 0
7.75244 0 0
7.80054 0 0
7.80054 0 0
7.84863 0 0
7.84863 0 0
7.89673 0 0
7.89673 0 0
7.94482 0 0
7.94482 0 0
7.99292 0 0
7.99292 0 0
8.04102 0 0
8.04102 0 0
8.08911 0 0
8.08911 0 0
8.13721 0 0
8.13721 0 0
8.1853 0 0
8.1853 0 0
8.2334 0 0
8.2334 0 0
8.28149 0 0
8.28149 0 0
8.32959 0 0
8.32959 0 0
8.37769 0 0
8.37769 0 0
8.42578 0 0
8.42578 0 0
8.47388 0 0
8.47388 0 0
8.52197 0 0
8.52197 0 0
8.57007 0 0
8.57007 0 0
8.61816 0 0
8.61816 0 0
8.66626 0 0
8.66626 0 0
8.71436 0 0
8.71436 0 0
8.76245 0 0
8.76245 0 0
8.81055 0 0
8.81055 0 0
8.85864 0 0
8.85864 0 0
8.90674 0 0
8.90674 0 0
8.95483 0 0
8.95483 0 0
9.00293 0 0
9.00293 0 0
9.05103 0 0
9.05103 0 0
9.09912 0 0
9.09912 0 0
9.14722 0 0
9.14722 0 0
9.19531 0 0
9.19531 0 0
9.24341 0 0
9.24341 0 0
9.2915 0 0
9.2915 0 0
9.3396 0 0
9.3396 0 0
9.3877 0 0
9.3877 0 0
9.43579 0 0
9.43579 0 0
9.48389 0 0
9.48389 0 0
9.53198 0 0
9.53198 0 0
9.58008 0 0
9.58008 0 0
9.62817 0 0
9.62817 0 0
9.67627 0 0
9.67627 0 0
9.72437 0 0
9.72437 0 0
9.77246 0 0
9.77246 0 0
9.82056 0 0
9.82056 0 0
9.86865 0 0
9.86865 0 0
9.91675 0 0
9.91675 0 0
9.96484 0 0
9.96484 0 0
10.0129 0 0
10.0129 0 0
10.061 0 0
10.061 0 0
10.1091 0 0
10.1091 0 0
10.1572 0 0
10.1572 0 0
10.2053 0 0
10.2053 0 0
10.2534 0 0
10.2534 0 0
10.3015 0 0
10.3015 0 0
10.3496 0 0
10.3496 0 0
10.3977 0 0
10.3977 0 0
10.4458 0 0
10.4458 0 0
10.4939 0 0
10.4939 0 0
10.542 0 0
10.542 0 0
10.5901 0 0
10.5901 0 0
10.6382 0 0
10.6382 0 0
10.6863 0 0
10.6863 0 0
10.7344 0 0
10.7344 0 0
10.7825 0 0
10.7825 0 0
10.8306 0 0
10.8306 0 0
10.8787 0 0
10.8787 0 0
10.9268 0 0
10.9268 0 0
10.9749 0 0
10.9749 0 0
11.0229 0 0
11.0229 0 0
11.071 0 0
11.071 0 0
11.1191 0 0
11.1191 0 0
11.1672 0 0
11.1672 0 0
11.2153 0 0
11.2153 0 0
11.2634 0 0
11.2634 0 0
11.3115 0 0
11.3115 0 0
11.3596 0 0
11.3596 0 0
11.4077 0 0
11.4077 0 0
11.4558 0 0
11.4558 0 0
11.5039 0 0
11.5039 0 0
11.552 0 0
11.552 0 0
11.6001 0 0
11.6001 0 0
11.6482 0 0
11.6482 0 0
11.6963 0 0
11.6963 0 0
11.7444 0 0
11.7444 0 0
11.7925 0 0
11.7925 0 0
11.8406 0 0
11.8406 0 0
11.8887 0 0
11.8887 0 0
11.9368 0 0
11.9368 0 0
11.9849 0 0
11.9849 0 0
12.033 0 0
12.033 0 0
12.0811 0 0
12.0811 0 0
12.1292 0 0
12.1292 0 0
12.1772 0 0
12.1772 0 0
12.2253 0 0
12.2253 0 0
12.2734 0 0
12.2734 0 0
12.3215 0 0
12.3215 0 0
12.3696 0 0
12.3696 0 0
12.4177 0 0
12.4177 0 0
12.4658 0 0
12.4658 0 0
12.5139 0 0
12.5139 0 0
12.562 0 0
12.562 0 0
12.6101 0 0
12.6101 0 0
12.6582 0 0
12.6582 0 0
12.7063 0 0
12.7063 0 0
12.7544 0 0
12.7544 0 0
12.8025 0 0
12.8025 0 0
12.8506 0 0
12.8506 0 0
12.8987 0 0
12.8987 0 0
12.9468 0 0
12.9468 0 0
12.9949 0 0
12.9949 0 0
13.043 0 0
13.043 0 0
13.0911 0 0
13.0911 0 0
13.1392 0 0
13.1392 0 0
13.1873 0 0
13.1873 0 0
13.2354 0 0
13.2354 0 0
13.2834 0 0
13.2834 0 0
13.3315 0 0
13.3315 0 0
13.3796 0 0
13.3796 0 0
13.4277 0 0
13.4277 0 0
13.4758 0 0
13.4758 0 0
13.5239 0 0
13.5239 0 0
13.572 0 0
13.572 0 0
13.6201 0 0
13.6201 0 0
13.6682 0 0
13.6682 0 0
13.7163 0 0
13.7163 0 0
13.7644 0 0
13.7644 0 0
13.8125 0 0
13.8125 0 0
13.8606 0 0
13.8606 0 0
13.9087 0 0
13.9087 0 0
13.9568 0 0
13.9568 0 0
14.0049 0 0
14.0049 0 0
14.053 0 0
14.053 0 0
14.1011 0 0
14.1011 0 0
14.1492 0 0
14.1492 0 0
14.1973 0 0
14.1973 0 0
14.2454 0 0
14.2454 0 0
14.2935 0 0
14.2935 0 0
14.3416 0 0
14.3416 0 0
14.3896 0 0
14.3896 0 0
14.4377 0 0
14.4377 0 0
14.4858 0 0
14.4858 0 0
14.5339 0 0
14.5339 0 0
14.582 0 0
14.582 0 0
14.6301 0 0
14.6301 0 0
14.6782 0 0
14.6782 0 0
14.7263 0 0
14.7263 0 0
14.7744 0 0
14.7744 0 0
14.8225 0 0
14.8225 0 0
14.8706 0 0
14.8706 0 0
14.9187 0 0
14.9187 0 0
14.9668 0 0
14.9668 0 0
15.0149 0 0
15.0149 0 0
15.063 0 0
15.063 0 0
15.1111 0 0
15.1111 0 0
15.1592 0 0
15.1592 0 0
15.2073 0 0
15.2073 0 0
15.2554 0 0
15.2554 0 0
15.3035 0 0
15.3035 0 0
15.3516 0 0
15.3516 0 0
15.3997 0 0
15.3997 0 0
15.4478 0 0
15.4478 0 0
15.4958 0 0
15.4958 0 0
15.5439 0 0
15.5439 0 0
15.592 0 0
15.592 0 0
15.6401 0 0
15.6401 0 0
15.6882 0 0
15.6882 0 0
15.7363 0 0
15.7363 0 0
15.7844 0 0
15.7844 0 0
15.8325 0 0
15.8325 0 0
15.8806 0 0
15.8806 0 0
15.9287 0 0
15.9287 0 0
15.9768 0 0
15.9768 0 0
16.0249 0 0
16.0249 0 0
16.073 0 0
16.073 0 0
16.1211 0 0
16.1211 0 0
16.1692 0 0
16.1692 0 0
16.2173 0 0
16.2173 0 0
16.2654 0 0
16.2654 0 0
16.3135 0 0
16.3135 0 0
16.3616 0 0
16.3616 0 0
16.4097 0 0
16.4097 0 0
16.4578 0 0
16.4578 0 0
16.5059 0 0
16.5059 0 0
16.554 0 0
16.554 0 0
16.6021 0 0
16.6021 0 0
16.6501 0 0
16.6501 0 0
16.6982 0 0
16.6982 0 0
16.7463 0 0
16.7463 0 0
16.7944 0 0
16.7944 0 0
16.8425 0 0
16.8425 0 0
16.8906 0 0
16.8906 0 0
16.9387 0 0
16.9387 0 0
16.9868 0 0
16.9868 0 0
17.0349 0 0
17.0349 0 0
17.083 0 0
17.083 0 0
17.1311 0 0
17.1311 0 0
17.1792 0 0
17.1792 0 0
17.2273 0 0
17.2273 0 0
17.2754 0 0
17.2754 0 0
17.3235 0 0
17.3235 0 0
17.3716 0 0
17.3716 0 0
17.4197 0 0
17.4197 0 0
17.4678 0 0
17.4678 0 0
17.5159 0 0
17.5159 0 0
17.564 0 0
17.564 0 0
17.6121 0 0
17.6121 0 0
17.6602 0 0
17.6602 0 0
17.7083 0 0
17.7083 0 0
17.7563 0 0
17.7563 0 0
17.8044 0 0
17.8044 0 0
17.8525 0 0
17.8525 0 0
17.9006 0 0
17.9006 0 0
17.9487 0 0
17.9487 0 0
17.9968 0 0
17.9968 0 0
18.0449 0 0
18.0449 0 0
18.093 0 0
18.093 0 0
18.1411 0 0
18.1411 0 0
18.1892 0 0
18.1892 0 0
18.2373 0 0
18.2373 0 0
18.2854 0 0
18.2854 0 0
18.3335 0 0
18.3335 0 0
18.3816 0 0
18.3816 0 0
18.4297 0 0
18.4297 0 0
18.4778 0 0
18.4778 0 0
18.5259 0 0
18.5259 0 0
18.574 0 0
18.574 0 0
18.6221 0 0
18.6221 0 0
18.6702 0 0
18.6702 0 0
18.7183 0 0
18.7183 0 0
18.7664 0 0
18.7664 0 0
18.8145 0 0
18.8145 0 0
18.8625 0 0
18.8625 0 0
18.9106 0 0
18.9106 0 0
18.9587 0 0
18.9587 0 0
19.0068 0 0
19.0068 0 0
19.0549 0 0
19.0549 0 0
19.103 0 0
19.103 0 0
19.1511 0 0
19.1511 0 0
19.1992 0 0
19.1992 0 0
19.2473 0 0
19.2473 0 0
19.2954 0 0
19.2954 0 0
19.3435 0 0
19.3435 0 0
19.3916 0 0
19.3916 0 0
19.4397 0 0
19.4397 0 0
19.4878 0 0
19.4878 0 0
19.5359 0 0
19.5359 0 0
19.584 0 0
19.584 0 0
19.6321 0 0
19.6321 0 0
19.6802 0 0
19.6802 0 0
19.7283 0 0
19.7283 0 0
19.7764 0 0
19.7764 0 0
19.8245 0 0
19.8245 0 0
19.8726 0 0
19.8726 0 0
19.9207 0 0
19.9207 0 0
19.9688 0 0
19.9688 0 0
20.0168 0 0
20.0168 0 0
20.0649 0 0
20.0649 0 0
20.113 0 0
20.113 0 0
20.1611 0 0
20.1611 0 0
20.2092 0 0
20.2092 0 0
20.2573 0 0
20.2573 0 0
20.3054 0 0
20.3054 0 0
20.3535 0 0
20.3535 0 0
20.4016 0 0
20.4016 0 0
20.4497 0 0
20.4497 0 0
20.4978 0 0
20.4978 0 0
20.5459 0 0
20.5459 0 0
20.594 0 0
20.594 0 0
20.6421 0 0
20.6421 0 0
20.6902 0 0
20.6902 0 0
20.7383 0 0
20.7383 0 0
20.7864 0 0
20.7864 0 0
20.8345 0 0
20.8345 0 0
20.8826 0 0
20.8826 0 0
20.9307 0 0
20.9307 0 0
20.9788 0 0
20.9788 0 0
21.0269 0 0
21.0269 0 0
21.075 0 0
21.075 0 0
21.123 0 0
21.123 0 0
21.1711 0 0
21.1711 0 0
21.2192 0 0
21.2192 0 0
21.2673 0 0
21.2673 0 0
21.3154 0 0
21.3154 0 0
21.3635 0 0
21.3635 0 0
21.4116 0 0
[...]
POINT_DATA 4096
SCALARS solution_0 double 1
LOOKUP_TABLE default
2.13638e+12 2.09508e+12 2.09508e+12 2.05678e+12 2.05678e+12 2.02116e+12 2.02116e+12 1.98795e+12 1.98795e+12 1.95691e+12 1.95691e+12 1.92783e+12 1.92783e+12 1.90051e+12 1.90051e+12 1.87481e+12 1.87481e+12 1.85056e+12 1.85056e+12 1.82763e+12 1.82763e+12 1.80592e+12 1.80592e+12 1.78531e+12 1.78531e+12 1.76571e+12 1.76571e+12 1.74704e+12 1.74704e+12 1.72921e+12 1.72921e+12 1.71218e+12 1.71218e+12 1.69586e+12 1.69586e+12 1.68021e+12 1.68021e+12 1.66517e+12 1.66517e+12 1.6507e+12 1.6507e+12 1.63676e+12 1.63676e+12 1.6233e+12 1.6233e+12 1.6103e+12 1.6103e+12 1.59772e+12 1.59772e+12 1.58553e+12 1.58553e+12 1.5737e+12 1.5737e+12 1.56222e+12 1.56222e+12 1.55106e+12 1.55106e+12 1.54019e+12 1.54019e+12 1.5296e+12 1.5296e+12 1.51928e+12 1.51928e+12 1.50919e+12 1.50919e+12 1.49934e+12 1.49934e+12 1.48971e+12 1.48971e+12 1.48027e+12 1.48027e+12 1.47103e+12 1.47103e+12 1.46197e+12 1.46197e+12 1.45308e+12 1.45308e+12 1.44435e+12 1.44435e+12 1.43577e+12 1.43577e+12 1.42734e+12 1.42734e+12 1.41904e+12 1.41904e+12 1.41087e+12 1.41087e+12 1.40282e+12 1.40282e+12 1.39489e+12 1.39489e+12 1.38707e+12 1.38707e+12 1.37935e+12 1.37935e+12 1.37174e+12 1.37174e+12 1.36422e+12 1.36422e+12 1.35679e+12 1.35679e+12 1.34945e+12 1.34945e+12 1.34219e+12 1.34219e+12 1.33501e+12 1.33501e+12 1.32791e+12 1.32791e+12 1.32088e+12 1.32088e+12 1.31392e+12 1.31392e+12 1.30703e+12 1.30703e+12 1.3002e+12 1.3002e+12 1.29344e+12 1.29344e+12 1.28673e+12 1.28673e+12 1.28009e+12 1.28009e+12 1.2735e+12 1.2735e+12 1.26696e+12 1.26696e+12 1.26048e+12 1.26048e+12 1.25404e+12 1.25404e+12 1.24766e+12 1.24766e+12 1.24132e+12 1.24132e+12 1.23503e+12 1.23503e+12 1.22878e+12 1.22878e+12 1.22258e+12 1.22258e+12 1.21642e+12 1.21642e+12 1.2103e+12 1.2103e+12 1.20422e+12 1.20422e+12 1.19818e+12 1.19818e+12 1.19218e+12 1.19218e+12 1.18622e+12 1.18622e+12 1.18029e+12 1.18029e+12 1.1744e+12 1.1744e+12 1.16854e+12 1.16854e+12 1.16272e+12 1.16272e+12 1.15693e+12 1.15693e+12 1.15117e+12 1.15117e+12 1.14545e+12 1.14545e+12 1.13976e+12 1.13976e+12 1.1341e+12 1.1341e+12 1.12847e+12 1.12847e+12 1.12287e+12 1.12287e+12 1.1173e+12 1.1173e+12 1.11176e+12 1.11176e+12 1.10625e+12 1.10625e+12 1.10076e+12 1.10076e+12 1.09531e+12 1.09531e+12 1.08989e+12 1.08989e+12 1.08449e+12 1.08449e+12 1.07912e+12 1.07912e+12 1.07377e+12 1.07377e+12 1.06846e+12 1.06846e+12 1.06316e+12 1.06316e+12 1.0579e+12 1.0579e+12 1.05266e+12 1.05266e+12 1.04745e+12 1.04745e+12 1.04226e+12 1.04226e+12 1.0371e+12 1.0371e+12 1.03196e+12 1.03196e+12 1.02685e+12 1.02685e+12 1.02176e+12 1.02176e+12 1.0167e+12 1.0167e+12 1.01166e+12 1.01166e+12 1.00664e+12 1.00664e+12 1.00165e+12 1.00165e+12 9.96686e+11 9.96686e+11 9.91743e+11 9.91743e+11 9.86823e+11 9.86823e+11 9.81927e+11 9.81927e+11 9.77053e+11 9.77053e+11 9.72203e+11 9.72203e+11 9.67376e+11 9.67376e+11 9.62571e+11 9.62571e+11 9.5779e+11 9.5779e+11 9.53031e+11 9.53031e+11 9.48294e+11 9.48294e+11 9.4358e+11 9.4358e+11 9.38888e+11 9.38888e+11 9.34218e+11 9.34218e+11 9.29571e+11 9.29571e+11 9.24945e+11 9.24945e+11 9.20342e+11 9.20342e+11 9.1576e+11 9.1576e+11 9.112e+11 9.112e+11 9.06661e+11 9.06661e+11 9.02144e+11 9.02144e+11 8.97648e+11 8.97648e+11 8.93174e+11 8.93174e+11 8.88721e+11 8.88721e+11 8.84289e+11 8.84289e+11 8.79879e+11 8.79879e+11 8.75489e+11 8.75489e+11 8.7112e+11 8.7112e+11 8.66772e+11 8.66772e+11 8.62445e+11 8.62445e+11 8.58139e+11 8.58139e+11 8.53853e+11 8.53853e+11 8.49588e+11 8.49588e+11 8.45343e+11 8.45343e+11 8.41119e+11 8.41119e+11 8.36915e+11 8.36915e+11 8.32731e+11 8.32731e+11 8.28568e+11 8.28568e+11 8.24424e+11 8.24424e+11 8.20301e+11 8.20301e+11 8.16197e+11 8.16197e+11 8.12114e+11 8.12114e+11 8.0805e+11 8.0805e+11 8.04006e+11 8.04006e+11 7.99982e+11 7.99982e+11 7.95977e+11 7.95977e+11 7.91992e+11 7.91992e+11 7.88026e+11 7.88026e+11 7.8408e+11 7.8408e+11 7.80153e+11 7.80153e+11 7.76245e+11 7.76245e+11 7.72357e+11 7.72357e+11 7.68487e+11 7.68487e+11 7.64637e+11 7.64637e+11 7.60805e+11 7.60805e+11 7.56993e+11 7.56993e+11 7.53199e+11 7.53199e+11 7.49424e+11 7.49424e+11 7.45667e+11 7.45667e+11 7.4193e+11 7.4193e+11 7.38211e+11 7.38211e+11 7.3451e+11 7.3451e+11 7.30828e+11 7.30828e+11 7.27164e+11 7.27164e+11 7.23518e+11 7.23518e+11 7.1989e+11 7.1989e+11 7.16281e+11 7.16281e+11 7.12689e+11 7.12689e+11 7.09116e+11 7.09116e+11 7.05561e+11 7.05561e+11 7.02023e+11 7.02023e+11 6.98503e+11 6.98503e+11 6.95001e+11 6.95001e+11 6.91516e+11 6.91516e+11 6.88049e+11 6.88049e+11 6.84599e+11 6.84599e+11 6.81167e+11 6.81167e+11 6.77752e+11 6.77752e+11 6.74355e+11 6.74355e+11 6.70974e+11 6.70974e+11 6.67611e+11 6.67611e+11 6.64265e+11 6.64265e+11 6.60935e+11 6.60935e+11 6.57623e+11 6.57623e+11 6.54328e+11 6.54328e+11 6.51049e+11 6.51049e+11 6.47787e+11 6.47787e+11 6.44541e+11 6.44541e+11 6.41312e+11 6.41312e+11 6.381e+11 6.381e+11 6.34904e+11 6.34904e+11 6.31724e+11 6.31724e+11 6.2856e+11 6.2856e+11 6.25413e+11 6.25413e+11 6.22282e+11 6.22282e+11 6.19167e+11 6.19167e+11 6.16067e+11 6.16067e+11 6.12984e+11 6.12984e+11 6.09917e+11 6.09917e+11 6.06865e+11 6.06865e+11 6.03829e+11 6.03829e+11 6.00808e+11 6.00808e+11 5.97804e+11 5.97804e+11 5.94814e+11 5.94814e+11 5.9184e+11 5.9184e+11 5.88881e+11 5.88881e+11 5.85938e+11 5.85938e+11 5.8301e+11 5.8301e+11 5.80097e+11 5.80097e+11 5.77199e+11 5.77199e+11 5.74315e+11 5.74315e+11 5.71447e+11 5.71447e+11 5.68594e+11 5.68594e+11 5.65755e+11 5.65755e+11 5.62931e+11 5.62931e+11 5.60122e+11 5.60122e+11 5.57327e+11 5.57327e+11 5.54547e+11 5.54547e+11 5.51781e+11 5.51781e+11 5.4903e+11 5.4903e+11 5.46292e+11 5.46292e+11 5.43569e+11 5.43569e+11 5.4086e+11 5.4086e+11 5.38166e+11 5.38166e+11 5.35485e+11 5.35485e+11 5.32818e+11 5.32818e+11 5.30165e+11 5.30165e+11 5.27526e+11 5.27526e+11 5.249e+11 5.249e+11 5.22288e+11 5.22288e+11 5.1969e+11 5.1969e+11 5.17105e+11 5.17105e+11 5.14534e+11 5.14534e+11 5.11976e+11 5.11976e+11 5.09431e+11 5.09431e+11 5.069e+11 5.069e+11 5.04381e+11 5.04381e+11 5.01876e+11 5.01876e+11 4.99384e+11 4.99384e+11 4.96905e+11 4.96905e+11 4.94439e+11 4.94439e+11 4.91986e+11 4.91986e+11 4.89545e+11 4.89545e+11 4.87117e+11 4.87117e+11 4.84702e+11 4.84702e+11 4.823e+11 4.823e+11 4.7991e+11 4.7991e+11 4.77532e+11 4.77532e+11 4.75167e+11 4.75167e+11 4.72814e+11 4.72814e+11 4.70473e+11 4.70473e+11 4.68145e+11 4.68145e+11 4.65828e+11 4.65828e+11 4.63524e+11 4.63524e+11 4.61232e+11 4.61232e+11 4.58952e+11 4.58952e+11 4.56683e+11 4.56683e+11 4.54427e+11 4.54427e+11 4.52182e+11 4.52182e+11 4.49949e+11 4.49949e+11 4.47727e+11 4.47727e+11 4.45517e+11 4.45517e+11 4.43319e+11 4.43319e+11 4.41132e+11 4.41132e+11 4.38957e+11 4.38957e+11 4.36792e+11 4.36792e+11 4.34639e+11 4.34639e+11 4.32498e+11 4.32498e+11 4.30367e+11 4.30367e+11 4.28247e+11 4.28247e+11 4.26139e+11 4.26139e+11 4.24041e+11 4.24041e+11 4.21955e+11 4.21955e+11 4.19879e+11 4.19879e+11 4.17814e+11 4.17814e+11 4.1576e+11 4.1576e+11 4.13716e+11 4.13716e+11 4.11683e+11 4.11683e+11 4.09661e+11 4.09661e+11 4.07649e+11 4.07649e+11 4.05647e+11 4.05647e+11 4.03656e+11 4.03656e+11 4.01675e+11 4.01675e+11 3.99705e+11 3.99705e+11 3.97745e+11 3.97745e+11 3.95794e+11 3.95794e+11 3.93854e+11 3.93854e+11 3.91924e+11 3.91924e+11 3.90004e+11 3.90004e+11 3.88094e+11 3.88094e+11 3.86194e+11 3.86194e+11 3.84304e+11 3.84304e+11 3.82423e+11 3.82423e+11 3.80552e+11 3.80552e+11 3.78691e+11 3.78691e+11 3.7684e+11 3.7684e+11 3.74998e+11 3.74998e+11 3.73165e+11 3.73165e+11 3.71342e+11 3.71342e+11 3.69529e+11 3.69529e+11 3.67724e+11 3.67724e+11 3.65929e+11 3.65929e+11 3.64144e+11 3.64144e+11 3.62367e+11 3.62367e+11 3.606e+11 3.606e+11 3.58841e+11 3.58841e+11 3.57092e+11 3.57092e+11 3.55352e+11 3.55352e+11 3.53621e+11 3.53621e+11 3.51898e+11 3.51898e+11 3.50185e+11 3.50185e+11 3.4848e+11 3.4848e+11 3.46784e+11 3.46784e+11 3.45096e+11 3.45096e+11 3.43418e+11 3.43418e+11 3.41747e+11 3.41747e+11 3.40086e+11 3.40086e+11 3.38433e+11 3.38433e+11 3.36788e+11 3.36788e+11 3.35152e+11 3.35152e+11 3.33524e+11 3.33524e+11 3.31905e+11 3.31905e+11 3.30293e+11 3.30293e+11 3.2869e+11 3.2869e+11 3.27095e+11 3.27095e+11 3.25509e+11 3.25509e+11 3.2393e+11 3.2393e+11 3.22359e+11 3.22359e+11 3.20797e+11 3.20797e+11 3.19242e+11 3.19242e+11 3.17695e+11 3.17695e+11 3.16156e+11 3.16156e+11 3.14625e+11 3.14625e+11 3.13102e+11 3.13102e+11 3.11586e+11 3.11586e+11 3.10078e+11 3.10078e+11 3.08578e+11 3.08578e+11 3.07085e+11 3.07085e+11 3.056e+11 3.056e+11 3.04122e+11 3.04122e+11 3.02652e+11 3.02652e+11 3.01189e+11 3.01189e+11 2.99734e+11 2.99734e+11 2.98286e+11 2.98286e+11 2.96845e+11 2.96845e+11 2.95411e+11 2.95411e+11 2.93985e+11 2.93985e+11 2.92566e+11 2.92566e+11 2.91154e+11 2.91154e+11 2.89749e+11 2.89749e+11 2.88351e+11 2.88351e+11 2.8696e+11 2.8696e+11 2.85577e+11 2.85577e+11 2.842e+11 2.842e+11 2.8283e+11 2.8283e+11 2.81466e+11 2.81466e+11 2.8011e+11 2.8011e+11 2.7876e+11 2.7876e+11 2.77418e+11 2.77418e+11 2.76081e+11 2.76081e+11 2.74752e+11 2.74752e+11 2.73429e+11 2.73429e+11 2.72113e+11 2.72113e+11 2.70803e+11 2.70803e+11 2.695e+11 2.695e+11 2.68203e+11 2.68203e+11 2.66913e+11 2.66913e+11 2.65629e+11 2.65629e+11 2.64351e+11 2.64351e+11 2.6308e+11 2.6308e+11 2.61815e+11 2.61815e+11 2.60557e+11 2.60557e+11 2.59304e+11 2.59304e+11 2.58058e+11 2.58058e+11 2.56818e+11 2.56818e+11 2.55584e+11 2.55584e+11 2.54356e+11 2.54356e+11 2.53134e+11 2.53134e+11 2.51919e+11 2.51919e+11 2.50709e+11 2.50709e+11 2.49505e+11 2.49505e+11 2.48307e+11 2.48307e+11 2.47115e+11 2.47115e+11 2.45929e+11 2.45929e+11 2.44748e+11 2.44748e+11 2.43574e+11 2.43574e+11 2.42405e+11 2.42405e+11 2.41242e+11 2.41242e+11 2.40084e+11 2.40084e+11 2.38932e+11 2.38932e+11 2.37786e+11 2.37786e+11 2.36645e+11 2.36645e+11 2.3551e+11 2.3551e+11 2.34381e+11 2.34381e+11 2.33257e+11 2.33257e+11 2.32138e+11 2.32138e+11 2.31025e+11 2.31025e+11 2.29917e+11 2.29917e+11 2.28815e+11 2.28815e+11 2.27718e+11 2.27718e+11 2.26626e+11 2.26626e+11 2.2554e+11 2.2554e+11 2.24458e+11 2.24458e+11 2.23382e+11 2.23382e+11 2.22312e+11 2.22312e+11 2.21246e+11 2.21246e+11 2.20185e+11 2.20185e+11 2.1913e+11 2.1913e+11 2.1808e+11 2.1808e+11 2.17035e+11 2.17035e+11 2.15994e+11 2.15994e+11 2.14959e+11 2.14959e+11 2.13929e+11 2.13929e+11 2.12903e+11 2.12903e+11 2.11883e+11 2.11883e+11 2.10867e+11 2.10867e+11 2.09857e+11 2.09857e+11 2.08851e+11 2.08851e+11 2.0785e+11 2.0785e+11 2.06853e+11 2.06853e+11 2.05862e+11 2.05862e+11 2.04875e+11 2.04875e+11 2.03893e+11 2.03893e+11 2.02915e+11 2.02915e+11 2.01942e+11 2.01942e+11 2.00974e+11 2.00974e+11 2.0001e+11 2.0001e+11 1.99051e+11 1.99051e+11 1.98097e+11 1.98097e+11 1.97147e+11 1.97147e+11 1.96201e+11 1.96201e+11 1.9526e+11 1.9526e+11 1.94323e+11 1.94323e+11 1.93391e+11 1.93391e+11 1.92463e+11 1.92463e+11 1.9154e+11 1.9154e+11 1.90621e+11 1.90621e+11 1.89706e+11 1.89706e+11 1.88795e+11 1.88795e+11 1.87889e+11 1.87889e+11 1.86987e+11 1.86987e+11 1.86089e+11 1.86089e+11 1.85195e+11 1.85195e+11 1.84306e+11 1.84306e+11 1.83421e+11 1.83421e+11 1.8254e+11 1.8254e+11 1.81662e+11 1.81662e+11 1.80789e+11 1.80789e+11 1.79921e+11 1.79921e+11 1.79056e+11 1.79056e+11 1.78195e+11 1.78195e+11 1.77338e+11 1.77338e+11 1.76485e+11 1.76485e+11 1.75636e+11 1.75636e+11 1.74791e+11 1.74791e+11 1.7395e+11 1.7395e+11 1.73113e+11 1.73113e+11 1.72279e+11 1.72279e+11 1.7145e+11 1.7145e+11 1.70624e+11 1.70624e+11 1.69802e+11 1.69802e+11 1.68984e+11 1.68984e+11 1.68169e+11 1.68169e+11 1.67359e+11 1.67359e+11 1.66552e+11 1.66552e+11 1.65749e+11 1.65749e+11 1.64949e+11 1.64949e+11 1.64153e+11 1.64153e+11 1.63361e+11 1.63361e+11 1.62572e+11 1.62572e+11 1.61787e+11 1.61787e+11 1.61006e+11 1.61006e+11 1.60228e+11 1.60228e+11 1.59453e+11 1.59453e+11 1.58682e+11 1.58682e+11 1.57915e+11 1.57915e+11 1.57151e+11 1.57151e+11 1.56391e+11 1.56391e+11 1.55634e+11 1.55634e+11 1.5488e+11 1.5488e+11 1.5413e+11 1.5413e+11 1.53383e+11 1.53383e+11 1.5264e+11 1.5264e+11 1.519e+11 1.519e+11 1.51163e+11 1.51163e+11 1.5043e+11 1.5043e+11 1.497e+11 1.497e+11 1.48973e+11 1.48973e+11 1.48249e+11 1.48249e+11 1.47529e+11 1.47529e+11 1.46812e+11 1.46812e+11 1.46098e+11 1.46098e+11 1.45387e+11 1.45387e+11 1.4468e+11 1.4468e+11 1.43975e+11 1.43975e+11 1.43274e+11 1.43274e+11 1.42576e+11 1.42576e+11 1.41881e+11 1.41881e+11 1.41189e+11 1.41189e+11 1.405e+11 1.405e+11 1.39814e+11 1.39814e+11 1.39132e+11 1.39132e+11 1.38452e+11 1.38452e+11 1.37775e+11 1.37775e+11 1.37102e+11 1.37102e+11 1.36431e+11 1.36431e+11 1.35763e+11 1.35763e+11 1.35098e+11 1.35098e+11 1.34436e+11 1.34436e+11 1.33777e+11 1.33777e+11 1.33121e+11 1.33121e+11 1.32468e+11 1.32468e+11 1.31818e+11 1.31818e+11 1.3117e+11 1.3117e+11 1.30526e+11 1.30526e+11 1.29884e+11 1.29884e+11 1.29245e+11 1.29245e+11 1.28609e+11 1.28609e+11 1.27975e+11 1.27975e+11 1.27345e+11 1.27345e+11 1.26717e+11 1.26717e+11 1.26091e+11 1.26091e+11 1.25469e+11 1.25469e+11 1.24849e+11 1.24849e+11 1.24232e+11 1.24232e+11 1.23618e+11 1.23618e+11 1.23006e+11 1.23006e+11 1.22397e+11 1.22397e+11 1.2179e+11 1.2179e+11 1.21187e+11 1.21187e+11 1.20585e+11 1.20585e+11 1.19987e+11 1.19987e+11 1.19391e+11 1.19391e+11 1.18797e+11 1.18797e+11 1.18206e+11 1.18206e+11 1.17618e+11 1.17618e+11 1.17032e+11 1.17032e+11 1.16449e+11 1.16449e+11 1.15868e+11 1.15868e+11 1.15289e+11 1.15289e+11 1.14714e+11 1.14714e+11 1.1414e+11 1.1414e+11 1.13569e+11 1.13569e+11 1.13001e+11 1.13001e+11 1.12435e+11 1.12435e+11 1.11871e+11 1.11871e+11 1.1131e+11 1.1131e+11 1.10751e+11 1.10751e+11 1.10194e+11 1.10194e+11 1.0964e+11 1.0964e+11 1.09088e+11 1.09088e+11 1.08539e+11 1.08539e+11 1.07991e+11 1.07991e+11 1.07447e+11 1.07447e+11 1.06904e+11 1.06904e+11 1.06364e+11 1.06364e+11 1.05826e+11 1.05826e+11 1.0529e+11 1.0529e+11 1.04757e+11 1.04757e+11 1.04226e+11 1.04226e+11 1.03697e+11 1.03697e+11 1.0317e+11 1.0317e+11 1.02645e+11 1.02645e+11 1.02123e+11 1.02123e+11 1.01603e+11 1.01603e+11 1.01085e+11 1.01085e+11 1.00569e+11 1.00569e+11 1.00055e+11 1.00055e+11 9.95438e+10 9.95438e+10 9.90344e+10 9.90344e+10 9.85271e+10 9.85271e+10 9.8022e+10 9.8022e+10 9.75189e+10 9.75189e+10 9.7018e+10 9.7018e+10 9.65191e+10 9.65191e+10 9.60223e+10 9.60223e+10 9.55275e+10 9.55275e+10 9.50348e+10 9.50348e+10 9.45441e+10 9.45441e+10 9.40555e+10 9.40555e+10 9.35689e+10 9.35689e+10 9.30842e+10 9.30842e+10 9.26016e+10 9.26016e+10 9.2121e+10 9.2121e+10 9.16423e+10 9.16423e+10 9.11656e+10 9.11656e+10 9.06909e+10 9.06909e+10 9.02181e+10 9.02181e+10 8.97473e+10 8.97473e+10 8.92783e+10 8.92783e+10 8.88113e+10 8.88113e+10 8.83462e+10 8.83462e+10 8.78831e+10 8.78831e+10 8.74217e+10 8.74217e+10 8.69623e+10 8.69623e+10 8.65048e+10 8.65048e+10 8.60491e+10 8.60491e+10 8.55953e+10 8.55953e+10 8.51433e+10 8.51433e+10 8.46931e+10 8.46931e+10 8.42448e+10 8.42448e+10 8.37983e+10 8.37983e+10 8.33535e+10 8.33535e+10 8.29106e+10 8.29106e+10 8.24695e+10 8.24695e+10 8.20302e+10 8.20302e+10 8.15926e+10 8.15926e+10 8.11568e+10 8.11568e+10 8.07228e+10 8.07228e+10 8.02905e+10 8.02905e+10 7.98599e+10 7.98599e+10 7.94311e+10 7.94311e+10 7.90039e+10 7.90039e+10 7.85785e+10 7.85785e+10 7.81549e+10 7.81549e+10 7.77328e+10 7.77328e+10 7.73125e+10 7.73125e+10 7.68939e+10 7.68939e+10 7.64769e+10 7.64769e+10 7.60616e+10 7.60616e+10 7.5648e+10 7.5648e+10 7.5236e+10 7.5236e+10 7.48256e+10 7.48256e+10 7.44169e+10 7.44169e+10 7.40098e+10 7.40098e+10 7.36043e+10 7.36043e+10 7.32004e+10 7.32004e+10 7.27982e+10 7.27982e+10 7.23975e+10 7.23975e+10 7.19984e+10 7.19984e+10 7.16008e+10 7.16008e+10 7.12049e+10 7.12049e+10 7.08105e+10 7.08105e+10 7.04177e+10 7.04177e+10 7.00264e+10 7.00264e+10 6.96366e+10 6.96366e+10 6.92484e+10 6.92484e+10 6.88617e+10 6.88617e+10 6.84765e+10 6.84765e+10 6.80928e+10 6.80928e+10 6.77107e+10 6.77107e+10 6.733e+10 6.733e+10 6.69508e+10 6.69508e+10 6.65731e+10 6.65731e+10 6.61969e+10 6.61969e+10 6.58221e+10 6.58221e+10 6.54488e+10 6.54488e+10 6.5077e+10 6.5077e+10 6.47066e+10 6.47066e+10 6.43376e+10 6.43376e+10 6.39701e+10 6.39701e+10 6.3604e+10 6.3604e+10 6.32393e+10 6.32393e+10 6.28761e+10 6.28761e+10 6.25142e+10 6.25142e+10 6.21537e+10 6.21537e+10 6.17947e+10 6.17947e+10 6.1437e+10 6.1437e+10 6.10807e+10 6.10807e+10 6.07258e+10 6.07258e+10 6.03722e+10 6.03722e+10 6.002e+10 6.002e+10 5.96692e+10 5.96692e+10 5.93197e+10 5.93197e+10 5.89715e+10 5.89715e+10 5.86247e+10 5.86247e+10 5.82792e+10 5.82792e+10 5.79351e+10 5.79351e+10 5.75922e+10 5.75922e+10 5.72507e+10 5.72507e+10 5.69105e+10 5.69105e+10 5.65715e+10 5.65715e+10 5.62339e+10 5.62339e+10 5.58976e+10 5.58976e+10 5.55625e+10 5.55625e+10 5.52287e+10 5.52287e+10 5.48962e+10 5.48962e+10 5.45649e+10 5.45649e+10 5.42349e+10 5.42349e+10 5.39061e+10 5.39061e+10 5.35786e+10 5.35786e+10 5.32524e+10 5.32524e+10 5.29273e+10 5.29273e+10 5.26035e+10 5.26035e+10 5.2281e+10 5.2281e+10 5.19596e+10 5.19596e+10 5.16395e+10 5.16395e+10 5.13205e+10 5.13205e+10 5.10028e+10 5.10028e+10 5.06862e+10 5.06862e+10 5.03709e+10 5.03709e+10 5.00567e+10 5.00567e+10 4.97437e+10 4.97437e+10 4.94319e+10 4.94319e+10 4.91212e+10 4.91212e+10 4.88118e+10 4.88118e+10 4.85034e+10 4.85034e+10 4.81962e+10 4.81962e+10 4.78902e+10 4.78902e+10 4.75853e+10 4.75853e+10 4.72816e+10 4.72816e+10 4.6979e+10 4.6979e+10 4.66775e+10 4.66775e+10 4.63771e+10 4.63771e+10 4.60779e+10 4.60779e+10 4.57797e+10 4.57797e+10 4.54827e+10 4.54827e+10 4.51868e+10 4.51868e+10 4.48919e+10 4.48919e+10 4.45982e+10 4.45982e+10 4.43056e+10 4.43056e+10 4.4014e+10 4.4014e+10 4.37235e+10 4.37235e+10 4.34341e+10 4.34341e+10 4.31457e+10 4.31457e+10 4.28584e+10 4.28584e+10 4.25722e+10 4.25722e+10 4.2287e+10 4.2287e+10 4.20029e+10 4.20029e+10 4.17198e+10 4.17198e+10 4.14378e+10 4.14378e+10 4.11568e+10 4.11568e+10 4.08768e+10 4.08768e+10 4.05978e+10 4.05978e+10 4.03199e+10 4.03199e+10 4.0043e+10 4.0043e+10 3.97671e+10 3.97671e+10 3.94922e+10 3.94922e+10 3.92183e+10 3.92183e+10 3.89454e+10 3.89454e+10 3.86735e+10 3.86735e+10 3.84026e+10 3.84026e+10 3.81327e+10 3.81327e+10 3.78638e+10 3.78638e+10 3.75958e+10 3.75958e+10 3.73288e+10 3.73288e+10 3.70628e+10 3.70628e+10 3.67978e+10 3.67978e+10 3.65337e+10 3.65337e+10 3.62706e+10 3.62706e+10 3.60084e+10 3.60084e+10 3.57471e+10 3.57471e+10 3.54868e+10 3.54868e+10 3.52275e+10 3.52275e+10 3.49691e+10 3.49691e+10 3.47116e+10 3.47116e+10 3.4455e+10 3.4455e+10 3.41994e+10 3.41994e+10 3.39447e+10 3.39447e+10 3.36909e+10 3.36909e+10 3.3438e+10 3.3438e+10 3.3186e+10 3.3186e+10 3.2935e+10 3.2935e+10 3.26848e+10 3.26848e+10 3.24355e+10 3.24355e+10 3.21871e+10 3.21871e+10 3.19396e+10 3.19396e+10 3.1693e+10 3.1693e+10 3.14473e+10 3.14473e+10 3.12024e+10 3.12024e+10 3.09585e+10 3.09585e+10 3.07154e+10 3.07154e+10 3.04731e+10 3.04731e+10 3.02317e+10 3.02317e+10 2.99912e+10 2.99912e+10 2.97515e+10 2.97515e+10 2.95127e+10 2.95127e+10 2.92747e+10 2.92747e+10 2.90376e+10 2.90376e+10 2.88013e+10 2.88013e+10 2.85659e+10 2.85659e+10 2.83313e+10 2.83313e+10 2.80975e+10 2.80975e+10 2.78645e+10 2.78645e+10 2.76324e+10 2.76324e+10 2.74011e+10 2.74011e+10 2.71706e+10 2.71706e+10 2.69409e+10 2.69409e+10 2.6712e+10 2.6712e+10 2.64839e+10 2.64839e+10 2.62566e+10 2.62566e+10 2.60302e+10 2.60302e+10 2.58045e+10 2.58045e+10 2.55796e+10 2.55796e+10 2.53555e+10 2.53555e+10 2.51322e+10 2.51322e+10 2.49097e+10 2.49097e+10 2.46879e+10 2.46879e+10 2.44669e+10 2.44669e+10 2.42467e+10 2.42467e+10 2.40273e+10 2.40273e+10 2.38086e+10 2.38086e+10 2.35907e+10 2.35907e+10 2.33736e+10 2.33736e+10 2.31572e+10 2.31572e+10 2.29416e+10 2.29416e+10 2.27267e+10 2.27267e+10 2.25125e+10 2.25125e+10 2.22991e+10 2.22991e+10 2.20865e+10 2.20865e+10 2.18746e+10 2.18746e+10 2.16634e+10 2.16634e+10 2.14529e+10 2.14529e+10 2.12432e+10 2.12432e+10 2.10342e+10 2.10342e+10 2.0826e+10 2.0826e+10 2.06184e+10 2.06184e+10 2.04116e+10 2.04116e+10 2.02055e+10 2.02055e+10 2e+10 2e+10 1.97953e+10 1.97953e+10 1.95914e+10 1.95914e+10 1.93881e+10 1.93881e+10 1.91855e+10 1.91855e+10 1.89836e+10 1.89836e+10 1.87824e+10 1.87824e+10 1.85819e+10 1.85819e+10 1.8382e+10 1.8382e+10 1.81829e+10 1.81829e+10 1.79844e+10 1.79844e+10 1.77867e+10 1.77867e+10 1.75896e+10 1.75896e+10 1.73931e+10 1.73931e+10 1.71974e+10 1.71974e+10 1.70023e+10 1.70023e+10 1.68079e+10 1.68079e+10 1.66141e+10 1.66141e+10 1.6421e+10 1.6421e+10 1.62286e+10 1.62286e+10 1.60368e+10 1.60368e+10 1