# vtk DataFile Version 3.0
#This file was generated by the deal.II library on 2020/9/6 at 3:39:19
ASCII
DATASET UNSTRUCTURED_GRID

POINTS 4096 double
1.5 0 0
1.5481 0 0
1.5481 0 0
1.59619 0 0
1.59619 0 0
1.64429 0 0
1.64429 0 0
1.69238 0 0
1.69238 0 0
1.74048 0 0
1.74048 0 0
1.78857 0 0
1.78857 0 0
1.83667 0 0
1.83667 0 0
1.88477 0 0
1.88477 0 0
1.93286 0 0
1.93286 0 0
1.98096 0 0
1.98096 0 0
2.02905 0 0
2.02905 0 0
2.07715 0 0
2.07715 0 0
2.12524 0 0
2.12524 0 0
2.17334 0 0
2.17334 0 0
2.22144 0 0
2.22144 0 0
2.26953 0 0
2.26953 0 0
2.31763 0 0
2.31763 0 0
2.36572 0 0
2.36572 0 0
2.41382 0 0
2.41382 0 0
2.46191 0 0
2.46191 0 0
2.51001 0 0
2.51001 0 0
2.55811 0 0
2.55811 0 0
2.6062 0 0
2.6062 0 0
2.6543 0 0
2.6543 0 0
2.70239 0 0
2.70239 0 0
2.75049 0 0
2.75049 0 0
2.79858 0 0
2.79858 0 0
2.84668 0 0
2.84668 0 0
2.89478 0 0
2.89478 0 0
2.94287 0 0
2.94287 0 0
2.99097 0 0
2.99097 0 0
3.03906 0 0
3.03906 0 0
3.08716 0 0
3.08716 0 0
3.13525 0 0
3.13525 0 0
3.18335 0 0
3.18335 0 0
3.23145 0 0
3.23145 0 0
3.27954 0 0
3.27954 0 0
3.32764 0 0
3.32764 0 0
3.37573 0 0
3.37573 0 0
3.42383 0 0
3.42383 0 0
3.47192 0 0
3.47192 0 0
3.52002 0 0
3.52002 0 0
3.56812 0 0
3.56812 0 0
3.61621 0 0
3.61621 0 0
3.66431 0 0
3.66431 0 0
3.7124 0 0
3.7124 0 0
3.7605 0 0
3.7605 0 0
3.80859 0 0
3.80859 0 0
3.85669 0 0
3.85669 0 0
3.90479 0 0
3.90479 0 0
3.95288 0 0
3.95288 0 0
4.00098 0 0
4.00098 0 0
4.04907 0 0
4.04907 0 0
4.09717 0 0
4.09717 0 0
4.14526 0 0
4.14526 0 0
4.19336 0 0
4.19336 0 0
4.24146 0 0
4.24146 0 0
4.28955 0 0
4.28955 0 0
4.33765 0 0
4.33765 0 0
4.38574 0 0
4.38574 0 0
4.43384 0 0
4.43384 0 0
4.48193 0 0
4.48193 0 0
4.53003 0 0
4.53003 0 0
4.57812 0 0
4.57812 0 0
4.62622 0 0
4.62622 0 0
4.67432 0 0
4.67432 0 0
4.72241 0 0
4.72241 0 0
4.77051 0 0
4.77051 0 0
4.8186 0 0
4.8186 0 0
4.8667 0 0
4.8667 0 0
4.91479 0 0
4.91479 0 0
4.96289 0 0
4.96289 0 0
5.01099 0 0
5.01099 0 0
5.05908 0 0
5.05908 0 0
5.10718 0 0
5.10718 0 0
5.15527 0 0
5.15527 0 0
5.20337 0 0
5.20337 0 0
5.25146 0 0
5.25146 0 0
5.29956 0 0
5.29956 0 0
5.34766 0 0
5.34766 0 0
5.39575 0 0
5.39575 0 0
5.44385 0 0
5.44385 0 0
5.49194 0 0
5.49194 0 0
5.54004 0 0
5.54004 0 0
5.58813 0 0
5.58813 0 0
5.63623 0 0
5.63623 0 0
5.68433 0 0
5.68433 0 0
5.73242 0 0
5.73242 0 0
5.78052 0 0
5.78052 0 0
5.82861 0 0
5.82861 0 0
5.87671 0 0
5.87671 0 0
5.9248 0 0
5.9248 0 0
5.9729 0 0
5.9729 0 0
6.021 0 0
6.021 0 0
6.06909 0 0
6.06909 0 0
6.11719 0 0
6.11719 0 0
6.16528 0 0
6.16528 0 0
6.21338 0 0
6.21338 0 0
6.26147 0 0
6.26147 0 0
6.30957 0 0
6.30957 0 0
6.35767 0 0
6.35767 0 0
6.40576 0 0
6.40576 0 0
6.45386 0 0
6.45386 0 0
6.50195 0 0
6.50195 0 0
6.55005 0 0
6.55005 0 0
6.59814 0 0
6.59814 0 0
6.64624 0 0
6.64624 0 0
6.69434 0 0
6.69434 0 0
6.74243 0 0
6.74243 0 0
6.79053 0 0
6.79053 0 0
6.83862 0 0
6.83862 0 0
6.88672 0 0
6.88672 0 0
6.93481 0 0
6.93481 0 0
6.98291 0 0
6.98291 0 0
7.03101 0 0
7.03101 0 0
7.0791 0 0
7.0791 0 0
7.1272 0 0
7.1272 0 0
7.17529 0 0
7.17529 0 0
7.22339 0 0
7.22339 0 0
7.27148 0 0
7.27148 0 0
7.31958 0 0
7.31958 0 0
7.36768 0 0
7.36768 0 0
7.41577 0 0
7.41577 0 0
7.46387 0 0
7.46387 0 0
7.51196 0 0
7.51196 0 0
7.56006 0 0
7.56006 0 0
7.60815 0 0
7.60815 0 0
7.65625 0 0
7.65625 0 0
7.70435 0 0
7.70435 0 0
7.75244 0 0
7.75244 0 0
7.80054 0 0
7.80054 0 0
7.84863 0 0
7.84863 0 0
7.89673 0 0
7.89673 0 0
7.94482 0 0
7.94482 0 0
7.99292 0 0
7.99292 0 0
8.04102 0 0
8.04102 0 0
8.08911 0 0
8.08911 0 0
8.13721 0 0
8.13721 0 0
8.1853 0 0
8.1853 0 0
8.2334 0 0
8.2334 0 0
8.28149 0 0
8.28149 0 0
8.32959 0 0
8.32959 0 0
8.37769 0 0
8.37769 0 0
8.42578 0 0
8.42578 0 0
8.47388 0 0
8.47388 0 0
8.52197 0 0
8.52197 0 0
8.57007 0 0
8.57007 0 0
8.61816 0 0
8.61816 0 0
8.66626 0 0
8.66626 0 0
8.71436 0 0
8.71436 0 0
8.76245 0 0
8.76245 0 0
8.81055 0 0
8.81055 0 0
8.85864 0 0
8.85864 0 0
8.90674 0 0
8.90674 0 0
8.95483 0 0
8.95483 0 0
9.00293 0 0
9.00293 0 0
9.05103 0 0
9.05103 0 0
9.09912 0 0
9.09912 0 0
9.14722 0 0
9.14722 0 0
9.19531 0 0
9.19531 0 0
9.24341 0 0
9.24341 0 0
9.2915 0 0
9.2915 0 0
9.3396 0 0
9.3396 0 0
9.3877 0 0
9.3877 0 0
9.43579 0 0
9.43579 0 0
9.48389 0 0
9.48389 0 0
9.53198 0 0
9.53198 0 0
9.58008 0 0
9.58008 0 0
9.62817 0 0
9.62817 0 0
9.67627 0 0
9.67627 0 0
9.72437 0 0
9.72437 0 0
9.77246 0 0
9.77246 0 0
9.82056 0 0
9.82056 0 0
9.86865 0 0
9.86865 0 0
9.91675 0 0
9.91675 0 0
9.96484 0 0
9.96484 0 0
10.0129 0 0
10.0129 0 0
10.061 0 0
10.061 0 0
10.1091 0 0
10.1091 0 0
10.1572 0 0
10.1572 0 0
10.2053 0 0
10.2053 0 0
10.2534 0 0
10.2534 0 0
10.3015 0 0
10.3015 0 0
10.3496 0 0
10.3496 0 0
10.3977 0 0
10.3977 0 0
10.4458 0 0
10.4458 0 0
10.4939 0 0
10.4939 0 0
10.542 0 0
10.542 0 0
10.5901 0 0
10.5901 0 0
10.6382 0 0
10.6382 0 0
10.6863 0 0
10.6863 0 0
10.7344 0 0
10.7344 0 0
10.7825 0 0
10.7825 0 0
10.8306 0 0
10.8306 0 0
10.8787 0 0
10.8787 0 0
10.9268 0 0
10.9268 0 0
10.9749 0 0
10.9749 0 0
11.0229 0 0
11.0229 0 0
11.071 0 0
11.071 0 0
11.1191 0 0
11.1191 0 0
11.1672 0 0
11.1672 0 0
11.2153 0 0
11.2153 0 0
11.2634 0 0
11.2634 0 0
11.3115 0 0
11.3115 0 0
11.3596 0 0
11.3596 0 0
11.4077 0 0
11.4077 0 0
11.4558 0 0
11.4558 0 0
11.5039 0 0
11.5039 0 0
11.552 0 0
11.552 0 0
11.6001 0 0
11.6001 0 0
11.6482 0 0
11.6482 0 0
11.6963 0 0
11.6963 0 0
11.7444 0 0
11.7444 0 0
11.7925 0 0
11.7925 0 0
11.8406 0 0
11.8406 0 0
11.8887 0 0
11.8887 0 0
11.9368 0 0
11.9368 0 0
11.9849 0 0
11.9849 0 0
12.033 0 0
12.033 0 0
12.0811 0 0
12.0811 0 0
12.1292 0 0
12.1292 0 0
12.1772 0 0
12.1772 0 0
12.2253 0 0
12.2253 0 0
12.2734 0 0
12.2734 0 0
12.3215 0 0
12.3215 0 0
12.3696 0 0
12.3696 0 0
12.4177 0 0
12.4177 0 0
12.4658 0 0
12.4658 0 0
12.5139 0 0
12.5139 0 0
12.562 0 0
12.562 0 0
12.6101 0 0
12.6101 0 0
12.6582 0 0
12.6582 0 0
12.7063 0 0
12.7063 0 0
12.7544 0 0
12.7544 0 0
12.8025 0 0
12.8025 0 0
12.8506 0 0
12.8506 0 0
12.8987 0 0
12.8987 0 0
12.9468 0 0
12.9468 0 0
12.9949 0 0
12.9949 0 0
13.043 0 0
13.043 0 0
13.0911 0 0
13.0911 0 0
13.1392 0 0
13.1392 0 0
13.1873 0 0
13.1873 0 0
13.2354 0 0
13.2354 0 0
13.2834 0 0
13.2834 0 0
13.3315 0 0
13.3315 0 0
13.3796 0 0
13.3796 0 0
13.4277 0 0
13.4277 0 0
13.4758 0 0
13.4758 0 0
13.5239 0 0
13.5239 0 0
13.572 0 0
13.572 0 0
13.6201 0 0
13.6201 0 0
13.6682 0 0
13.6682 0 0
13.7163 0 0
13.7163 0 0
13.7644 0 0
13.7644 0 0
13.8125 0 0
13.8125 0 0
13.8606 0 0
13.8606 0 0
13.9087 0 0
13.9087 0 0
13.9568 0 0
13.9568 0 0
14.0049 0 0
14.0049 0 0
14.053 0 0
14.053 0 0
14.1011 0 0
14.1011 0 0
14.1492 0 0
14.1492 0 0
14.1973 0 0
14.1973 0 0
14.2454 0 0
14.2454 0 0
14.2935 0 0
14.2935 0 0
14.3416 0 0
14.3416 0 0
14.3896 0 0
14.3896 0 0
14.4377 0 0
14.4377 0 0
14.4858 0 0
14.4858 0 0
14.5339 0 0
14.5339 0 0
14.582 0 0
14.582 0 0
14.6301 0 0
14.6301 0 0
14.6782 0 0
14.6782 0 0
14.7263 0 0
14.7263 0 0
14.7744 0 0
14.7744 0 0
14.8225 0 0
14.8225 0 0
14.8706 0 0
14.8706 0 0
14.9187 0 0
14.9187 0 0
14.9668 0 0
14.9668 0 0
15.0149 0 0
15.0149 0 0
15.063 0 0
15.063 0 0
15.1111 0 0
15.1111 0 0
15.1592 0 0
15.1592 0 0
15.2073 0 0
15.2073 0 0
15.2554 0 0
15.2554 0 0
15.3035 0 0
15.3035 0 0
15.3516 0 0
15.3516 0 0
15.3997 0 0
15.3997 0 0
15.4478 0 0
15.4478 0 0
15.4958 0 0
15.4958 0 0
15.5439 0 0
15.5439 0 0
15.592 0 0
15.592 0 0
15.6401 0 0
15.6401 0 0
15.6882 0 0
15.6882 0 0
15.7363 0 0
15.7363 0 0
15.7844 0 0
15.7844 0 0
15.8325 0 0
15.8325 0 0
15.8806 0 0
15.8806 0 0
15.9287 0 0
15.9287 0 0
15.9768 0 0
15.9768 0 0
16.0249 0 0
16.0249 0 0
16.073 0 0
16.073 0 0
16.1211 0 0
16.1211 0 0
16.1692 0 0
16.1692 0 0
16.2173 0 0
16.2173 0 0
16.2654 0 0
16.2654 0 0
16.3135 0 0
16.3135 0 0
16.3616 0 0
16.3616 0 0
16.4097 0 0
16.4097 0 0
16.4578 0 0
16.4578 0 0
16.5059 0 0
16.5059 0 0
16.554 0 0
16.554 0 0
16.6021 0 0
16.6021 0 0
16.6501 0 0
16.6501 0 0
16.6982 0 0
16.6982 0 0
16.7463 0 0
16.7463 0 0
16.7944 0 0
16.7944 0 0
16.8425 0 0
16.8425 0 0
16.8906 0 0
16.8906 0 0
16.9387 0 0
16.9387 0 0
16.9868 0 0
16.9868 0 0
17.0349 0 0
17.0349 0 0
17.083 0 0
17.083 0 0
17.1311 0 0
17.1311 0 0
17.1792 0 0
17.1792 0 0
17.2273 0 0
17.2273 0 0
17.2754 0 0
17.2754 0 0
17.3235 0 0
17.3235 0 0
17.3716 0 0
17.3716 0 0
17.4197 0 0
17.4197 0 0
17.4678 0 0
17.4678 0 0
17.5159 0 0
17.5159 0 0
17.564 0 0
17.564 0 0
17.6121 0 0
17.6121 0 0
17.6602 0 0
17.6602 0 0
17.7083 0 0
17.7083 0 0
17.7563 0 0
17.7563 0 0
17.8044 0 0
17.8044 0 0
17.8525 0 0
17.8525 0 0
17.9006 0 0
17.9006 0 0
17.9487 0 0
17.9487 0 0
17.9968 0 0
17.9968 0 0
18.0449 0 0
18.0449 0 0
18.093 0 0
18.093 0 0
18.1411 0 0
18.1411 0 0
18.1892 0 0
18.1892 0 0
18.2373 0 0
18.2373 0 0
18.2854 0 0
18.2854 0 0
18.3335 0 0
18.3335 0 0
18.3816 0 0
18.3816 0 0
18.4297 0 0
18.4297 0 0
18.4778 0 0
18.4778 0 0
18.5259 0 0
18.5259 0 0
18.574 0 0
18.574 0 0
18.6221 0 0
18.6221 0 0
18.6702 0 0
18.6702 0 0
18.7183 0 0
18.7183 0 0
18.7664 0 0
18.7664 0 0
18.8145 0 0
18.8145 0 0
18.8625 0 0
18.8625 0 0
18.9106 0 0
18.9106 0 0
18.9587 0 0
18.9587 0 0
19.0068 0 0
19.0068 0 0
19.0549 0 0
19.0549 0 0
19.103 0 0
19.103 0 0
19.1511 0 0
19.1511 0 0
19.1992 0 0
19.1992 0 0
19.2473 0 0
19.2473 0 0
19.2954 0 0
19.2954 0 0
19.3435 0 0
19.3435 0 0
19.3916 0 0
19.3916 0 0
19.4397 0 0
19.4397 0 0
19.4878 0 0
19.4878 0 0
19.5359 0 0
19.5359 0 0
19.584 0 0
19.584 0 0
19.6321 0 0
19.6321 0 0
19.6802 0 0
19.6802 0 0
19.7283 0 0
19.7283 0 0
19.7764 0 0
19.7764 0 0
19.8245 0 0
19.8245 0 0
19.8726 0 0
19.8726 0 0
19.9207 0 0
19.9207 0 0
19.9688 0 0
19.9688 0 0
20.0168 0 0
20.0168 0 0
20.0649 0 0
20.0649 0 0
20.113 0 0
20.113 0 0
20.1611 0 0
20.1611 0 0
20.2092 0 0
20.2092 0 0
20.2573 0 0
20.2573 0 0
20.3054 0 0
20.3054 0 0
20.3535 0 0
20.3535 0 0
20.4016 0 0
20.4016 0 0
20.4497 0 0
20.4497 0 0
20.4978 0 0
20.4978 0 0
20.5459 0 0
20.5459 0 0
20.594 0 0
20.594 0 0
20.6421 0 0
20.6421 0 0
20.6902 0 0
20.6902 0 0
20.7383 0 0
20.7383 0 0
20.7864 0 0
20.7864 0 0
20.8345 0 0
20.8345 0 0
20.8826 0 0
20.8826 0 0
20.9307 0 0
20.9307 0 0
20.9788 0 0
20.9788 0 0
21.0269 0 0
21.0269 0 0
21.075 0 0
21.075 0 0
21.123 0 0
21.123 0 0
21.1711 0 0
21.1711 0 0
21.2192 0 0
21.2192 0 0
21.2673 0 0
21.2673 0 0
21.3154 0 0
21.3154 0 0
21.3635 0 0
21.3635 0 0
21.4116 0 0
[...]
POINT_DATA 4096
SCALARS solution_0 double 1
LOOKUP_TABLE default
56381.1 55291.2 55291.2 54280.3 54280.3 53340.3 53340.3 52463.8 52463.8 51644.6 51644.6 50877 50877 50156.2 50156.2 49477.7 49477.7 48837.7 48837.7 48232.6 48232.6 47659.5 47659.5 47115.6 47115.6 46598.3 46598.3 46105.5 46105.5 45635.1 45635.1 45185.4 45185.4 44754.8 44754.8 44341.6 44341.6 43944.7 43944.7 43562.8 43562.8 43194.8 43194.8 42839.7 42839.7 42496.5 42496.5 42164.4 42164.4 41842.7 41842.7 41530.6 41530.6 41227.6 41227.6 40932.9 40932.9 40646.1 40646.1 40366.6 40366.6 40094 40094 39827.9 39827.9 39567.9 39567.9 39313.6 39313.6 39064.6 39064.6 38820.7 38820.7 38581.5 38581.5 38346.8 38346.8 38116.4 38116.4 37890 37890 37667.4 37667.4 37448.3 37448.3 37232.7 37232.7 37020.3 37020.3 36811 36811 36604.5 36604.5 36400.9 36400.9 36199.9 36199.9 36001.4 36001.4 35805.4 35805.4 35611.6 35611.6 35420 35420 35230.6 35230.6 35043.1 35043.1 34857.6 34857.6 34673.9 34673.9 34492 34492 34311.8 34311.8 34133.3 34133.3 33956.3 33956.3 33780.9 33780.9 33606.9 33606.9 33434.4 33434.4 33263.3 33263.3 33093.4 33093.4 32924.9 32924.9 32757.7 32757.7 32591.6 32591.6 32426.7 32426.7 32263 32263 32100.4 32100.4 31938.9 31938.9 31778.5 31778.5 31619 31619 31460.6 31460.6 31303.2 31303.2 31146.8 31146.8 30991.2 30991.2 30836.7 30836.7 30683 30683 30530.2 30530.2 30378.3 30378.3 30227.2 30227.2 30077 30077 29927.6 29927.6 29779 29779 29631.2 29631.2 29484.2 29484.2 29338 29338 29192.6 29192.6 29047.9 29047.9 28903.9 28903.9 28760.7 28760.7 28618.2 28618.2 28476.5 28476.5 28335.4 28335.4 28195.1 28195.1 28055.5 28055.5 27916.5 27916.5 27778.2 27778.2 27640.7 27640.7 27503.8 27503.8 27367.5 27367.5 27231.9 27231.9 27097 27097 26962.7 26962.7 26829.1 26829.1 26696.1 26696.1 26563.7 26563.7 26432 26432 26300.9 26300.9 26170.4 26170.4 26040.6 26040.6 25911.3 25911.3 25782.7 25782.7 25654.7 25654.7 25527.3 25527.3 25400.5 25400.5 25274.3 25274.3 25148.7 25148.7 25023.7 25023.7 24899.3 24899.3 24775.4 24775.4 24652.2 24652.2 24529.5 24529.5 24407.4 24407.4 24285.9 24285.9 24165 24165 24044.7 24044.7 23924.9 23924.9 23805.7 23805.7 23687 23687 23568.9 23568.9 23451.4 23451.4 23334.4 23334.4 23218 23218 23102.2 23102.2 22986.9 22986.9 22872.1 22872.1 22757.9 22757.9 22644.3 22644.3 22531.1 22531.1 22418.6 22418.6 22306.5 22306.5 22195.1 22195.1 22084.1 22084.1 21973.7 21973.7 21863.8 21863.8 21754.4 21754.4 21645.6 21645.6 21537.3 21537.3 21429.6 21429.6 21322.3 21322.3 21215.6 21215.6 21109.4 21109.4 21003.7 21003.7 20898.5 20898.5 20793.8 20793.8 20689.7 20689.7 20586 20586 20482.9 20482.9 20380.3 20380.3 20278.1 20278.1 20176.5 20176.5 20075.4 20075.4 19974.8 19974.8 19874.7 19874.7 19775 19775 19675.9 19675.9 19577.2 19577.2 19479.1 19479.1 19381.4 19381.4 19284.2 19284.2 19187.5 19187.5 19091.3 19091.3 18995.6 18995.6 18900.3 18900.3 18805.5 18805.5 18711.2 18711.2 18617.4 18617.4 18524 18524 18431.1 18431.1 18338.7 18338.7 18246.7 18246.7 18155.2 18155.2 18064.2 18064.2 17973.6 17973.6 17883.5 17883.5 17793.8 17793.8 17704.6 17704.6 17615.8 17615.8 17527.5 17527.5 17439.7 17439.7 17352.2 17352.2 17265.3 17265.3 17178.7 17178.7 17092.7 17092.7 17007 17007 16921.8 16921.8 16837 16837 16752.6 16752.6 16668.7 16668.7 16585.2 16585.2 16502.2 16502.2 16419.5 16419.5 16337.3 16337.3 16255.5 16255.5 16174.2 16174.2 16093.2 16093.2 16012.7 16012.7 15932.5 15932.5 15852.8 15852.8 15773.5 15773.5 15694.6 15694.6 15616.1 15616.1 15538.1 15538.1 15460.4 15460.4 15383.1 15383.1 15306.2 15306.2 15229.7 15229.7 15153.7 15153.7 15078 15078 15002.7 15002.7 14927.7 14927.7 14853.2 14853.2 14779.1 14779.1 14705.3 14705.3 14631.9 14631.9 14558.9 14558.9 14486.3 14486.3 14414.1 14414.1 14342.2 14342.2 14270.7 14270.7 14199.6 14199.6 14128.9 14128.9 14058.5 14058.5 13988.5 13988.5 13918.8 13918.8 13849.5 13849.5 13780.6 13780.6 13712 13712 13643.8 13643.8 13576 13576 13508.5 13508.5 13441.3 13441.3 13374.5 13374.5 13308 13308 13241.9 13241.9 13176.2 13176.2 13110.7 13110.7 13045.6 13045.6 12980.9 12980.9 12916.5 12916.5 12852.4 12852.4 12788.7 12788.7 12725.3 12725.3 12662.2 12662.2 12599.5 12599.5 12537 12537 12474.9 12474.9 12413.2 12413.2 12351.7 12351.7 12290.6 12290.6 12229.8 12229.8 12169.3 12169.3 12109.1 12109.1 12049.3 12049.3 11989.7 11989.7 11930.5 11930.5 11871.5 11871.5 11812.9 11812.9 11754.6 11754.6 11696.6 11696.6 11638.9 11638.9 11581.4 11581.4 11524.3 11524.3 11467.5 11467.5 11411 11411 11354.8 11354.8 11298.8 11298.8 11243.2 11243.2 11187.8 11187.8 11132.8 11132.8 11078 11078 11023.5 11023.5 10969.3 10969.3 10915.3 10915.3 10861.7 10861.7 10808.3 10808.3 10755.2 10755.2 10702.4 10702.4 10649.9 10649.9 10597.6 10597.6 10545.6 10545.6 10493.9 10493.9 10442.4 10442.4 10391.2 10391.2 10340.3 10340.3 10289.6 10289.6 10239.2 10239.2 10189 10189 10139.2 10139.2 10089.5 10089.5 10040.2 10040.2 9991.05 9991.05 9942.19 9942.19 9893.58 9893.58 9845.22 9845.22 9797.11 9797.11 9749.25 9749.25 9701.64 9701.64 9654.27 9654.27 9607.14 9607.14 9560.26 9560.26 9513.62 9513.62 9467.22 9467.22 9421.06 9421.06 9375.13 9375.13 9329.45 9329.45 9283.99 9283.99 9238.77 9238.77 9193.78 9193.78 9149.03 9149.03 9104.5 9104.5 9060.2 9060.2 9016.12 9016.12 8972.28 8972.28 8928.66 8928.66 8885.25 8885.25 8842.08 8842.08 8799.12 8799.12 8756.38 8756.38 8713.86 8713.86 8671.56 8671.56 8629.47 8629.47 8587.6 8587.6 8545.94 8545.94 8504.49 8504.49 8463.25 8463.25 8422.23 8422.23 8381.41 8381.41 8340.8 8340.8 8300.39 8300.39 8260.19 8260.19 8220.2 8220.2 8180.4 8180.4 8140.81 8140.81 8101.42 8101.42 8062.23 8062.23 8023.23 8023.23 7984.44 7984.44 7945.84 7945.84 7907.43 7907.43 7869.22 7869.22 7831.2 7831.2 7793.37 7793.37 7755.73 7755.73 7718.28 7718.28 7681.02 7681.02 7643.95 7643.95 7607.06 7607.06 7570.36 7570.36 7533.84 7533.84 7497.5 7497.5 7461.35 7461.35 7425.38 7425.38 7389.59 7389.59 7353.97 7353.97 7318.54 7318.54 7283.28 7283.28 7248.2 7248.2 7213.29 7213.29 7178.55 7178.55 7143.99 7143.99 7109.6 7109.6 7075.38 7075.38 7041.34 7041.34 7007.46 7007.46 6973.75 6973.75 6940.2 6940.2 6906.82 6906.82 6873.61 6873.61 6840.56 6840.56 6807.68 6807.68 6774.95 6774.95 6742.39 6742.39 6709.99 6709.99 6677.75 6677.75 6645.67 6645.67 6613.74 6613.74 6581.97 6581.97 6550.36 6550.36 6518.91 6518.91 6487.6 6487.6 6456.46 6456.46 6425.46 6425.46 6394.62 6394.62 6363.92 6363.92 6333.38 6333.38 6302.98 6302.98 6272.74 6272.74 6242.64 6242.64 6212.69 6212.69 6182.88 6182.88 6153.22 6153.22 6123.7 6123.7 6094.33 6094.33 6065.1 6065.1 6036.01 6036.01 6007.06 6007.06 5978.25 5978.25 5949.59 5949.59 5921.06 5921.06 5892.66 5892.66 5864.41 5864.41 5836.29 5836.29 5808.31 5808.31 5780.46 5780.46 5752.74 5752.74 5725.16 5725.16 5697.71 5697.71 5670.39 5670.39 5643.21 5643.21 5616.15 5616.15 5589.22 5589.22 5562.43 5562.43 5535.76 5535.76 5509.21 5509.21 5482.8 5482.8 5456.51 5456.51 5430.34 5430.34 5404.3 5404.3 5378.39 5378.39 5352.59 5352.59 5326.92 5326.92 5301.37 5301.37 5275.95 5275.95 5250.64 5250.64 5225.45 5225.45 5200.38 5200.38 5175.43 5175.43 5150.6 5150.6 5125.88 5125.88 5101.29 5101.29 5076.8 5076.8 5052.43 5052.43 5028.18 5028.18 5004.04 5004.04 4980.01 4980.01 4956.1 4956.1 4932.3 4932.3 4908.61 4908.61 4885.03 4885.03 4861.56 4861.56 4838.2 4838.2 4814.95 4814.95 4791.81 4791.81 4768.77 4768.77 4745.84 4745.84 4723.02 4723.02 4700.31 4700.31 4677.7 4677.7 4655.19 4655.19 4632.79 4632.79 4610.49 4610.49 4588.3 4588.3 4566.21 4566.21 4544.22 4544.22 4522.33 4522.33 4500.54 4500.54 4478.85 4478.85 4457.26 4457.26 4435.78 4435.78 4414.39 4414.39 4393.09 4393.09 4371.9 4371.9 4350.8 4350.8 4329.8 4329.8 4308.9 4308.9 4288.09 4288.09 4267.37 4267.37 4246.75 4246.75 4226.23 4226.23 4205.79 4205.79 4185.45 4185.45 4165.21 4165.21 4145.05 4145.05 4124.99 4124.99 4105.01 4105.01 4085.13 4085.13 4065.34 4065.34 4045.63 4045.63 4026.02 4026.02 4006.49 4006.49 3987.05 3987.05 3967.7 3967.7 3948.44 3948.44 3929.26 3929.26 3910.17 3910.17 3891.16 3891.16 3872.24 3872.24 3853.4 3853.4 3834.65 3834.65 3815.98 3815.98 3797.4 3797.4 3778.9 3778.9 3760.48 3760.48 3742.14 3742.14 3723.89 3723.89 3705.71 3705.71 3687.62 3687.62 3669.6 3669.6 3651.67 3651.67 3633.81 3633.81 3616.04 3616.04 3598.34 3598.34 3580.72 3580.72 3563.18 3563.18 3545.72 3545.72 3528.33 3528.33 3511.02 3511.02 3493.79 3493.79 3476.63 3476.63 3459.54 3459.54 3442.53 3442.53 3425.6 3425.6 3408.74 3408.74 3391.95 3391.95 3375.24 3375.24 3358.6 3358.6 3342.03 3342.03 3325.54 3325.54 3309.12 3309.12 3292.76 3292.76 3276.48 3276.48 3260.27 3260.27 3244.13 3244.13 3228.06 3228.06 3212.06 3212.06 3196.13 3196.13 3180.27 3180.27 3164.47 3164.47 3148.75 3148.75 3133.09 3133.09 3117.5 3117.5 3101.97 3101.97 3086.52 3086.52 3071.13 3071.13 3055.8 3055.8 3040.54 3040.54 3025.35 3025.35 3010.22 3010.22 2995.16 2995.16 2980.16 2980.16 2965.22 2965.22 2950.35 2950.35 2935.54 2935.54 2920.79 2920.79 2906.11 2906.11 2891.49 2891.49 2876.93 2876.93 2862.44 2862.44 2848 2848 2833.62 2833.62 2819.31 2819.31 2805.06 2805.06 2790.86 2790.86 2776.73 2776.73 2762.66 2762.66 2748.64 2748.64 2734.69 2734.69 2720.79 2720.79 2706.95 2706.95 2693.17 2693.17 2679.44 2679.44 2665.78 2665.78 2652.17 2652.17 2638.62 2638.62 2625.12 2625.12 2611.68 2611.68 2598.3 2598.3 2584.97 2584.97 2571.7 2571.7 2558.48 2558.48 2545.32 2545.32 2532.21 2532.21 2519.16 2519.16 2506.16 2506.16 2493.21 2493.21 2480.32 2480.32 2467.48 2467.48 2454.69 2454.69 2441.96 2441.96 2429.28 2429.28 2416.65 2416.65 2404.07 2404.07 2391.55 2391.55 2379.07 2379.07 2366.65 2366.65 2354.28 2354.28 2341.96 2341.96 2329.69 2329.69 2317.47 2317.47 2305.3 2305.3 2293.18 2293.18 2281.1 2281.1 2269.08 2269.08 2257.11 2257.11 2245.18 2245.18 2233.31 2233.31 2221.48 2221.48 2209.7 2209.7 2197.97 2197.97 2186.29 2186.29 2174.65 2174.65 2163.06 2163.06 2151.52 2151.52 2140.03 2140.03 2128.58 2128.58 2117.18 2117.18 2105.82 2105.82 2094.51 2094.51 2083.24 2083.24 2072.03 2072.03 2060.85 2060.85 2049.72 2049.72 2038.64 2038.64 2027.6 2027.6 2016.6 2016.6 2005.65 2005.65 1994.74 1994.74 1983.88 1983.88 1973.06 1973.06 1962.28 1962.28 1951.54 1951.54 1940.85 1940.85 1930.19 1930.19 1919.58 1919.58 1909.01 1909.01 1898.48 1898.48 1887.99 1887.99 1877.54 1877.54 1867.13 1867.13 1856.76 1856.76 1846.43 1846.43 1836.14 1836.14 1825.88 1825.88 1815.67 1815.67 1805.49 1805.49 1795.35 1795.35 1785.24 1785.24 1775.17 1775.17 1765.14 1765.14 1755.15 1755.15 1745.19 1745.19 1735.26 1735.26 1725.38 1725.38 1715.53 1715.53 1705.71 1705.71 1695.93 1695.93 1686.19 1686.19 1676.48 1676.48 1666.81 1666.81 1657.18 1657.18 1647.58 1647.58 1638.02 1638.02 1628.5 1628.5 1619.01 1619.01 1609.56 1609.56 1600.14 1600.14 1590.77 1590.77 1581.43 1581.43 1572.13 1572.13 1562.86 1562.86 1553.64 1553.64 1544.45 1544.45 1535.3 1535.3 1526.19 1526.19 1517.11 1517.11 1508.07 1508.07 1499.07 1499.07 1490.11 1490.11 1481.18 1481.18 1472.3 1472.3 1463.45 1463.45 1454.63 1454.63 1445.85 1445.85 1437.11 1437.11 1428.41 1428.41 1419.74 1419.74 1411.11 1411.11 1402.51 1402.51 1393.95 1393.95 1385.43 1385.43 1376.94 1376.94 1368.48 1368.48 1360.06 1360.06 1351.68 1351.68 1343.33 1343.33 1335.01 1335.01 1326.73 1326.73 1318.48 1318.48 1310.27 1310.27 1302.09 1302.09 1293.95 1293.95 1285.84 1285.84 1277.76 1277.76 1269.71 1269.71 1261.7 1261.7 1253.72 1253.72 1245.78 1245.78 1237.87 1237.87 1229.99 1229.99 1222.14 1222.14 1214.32 1214.32 1206.54 1206.54 1198.79 1198.79 1191.07 1191.07 1183.38 1183.38 1175.72 1175.72 1168.09 1168.09 1160.49 1160.49 1152.92 1152.92 1145.39 1145.39 1137.88 1137.88 1130.4 1130.4 1122.95 1122.95 1115.52 1115.52 1108.13 1108.13 1100.76 1100.76 1093.42 1093.42 1086.11 1086.11 1078.82 1078.82 1071.56 1071.56 1064.32 1064.32 1057.11 1057.11 1049.93 1049.93 1042.77 1042.77 1035.63 1035.63 1028.52 1028.52 1021.42 1021.42 1014.36 1014.36 1007.31 1007.31 1000.29 1000.29 993.285 993.285 986.304 986.304 979.345 979.345 972.406 972.406 965.487 965.487 958.589 958.589 951.71 951.71 944.852 944.852 938.012 938.012 931.192 931.192 924.391 924.391 917.609 917.609 910.846 910.846 904.102 904.102 897.376 897.376 890.669 890.669 883.981 883.981 877.312 877.312 870.661 870.661 864.029 864.029 857.416 857.416 850.821 850.821 844.246 844.246 837.69 837.69 831.153 831.153 824.635 824.635 818.137 818.137 811.659 811.659 805.2 805.2 798.762 798.762 792.343 792.343 785.946 785.946 779.568 779.568 773.212 773.212 766.876 766.876 760.562 760.562 754.269 754.269 747.997 747.997 741.747 741.747 735.519 735.519 729.313 729.313 723.13 723.13 716.968 716.968 710.828 710.828 704.712 704.712 698.617 698.617 692.546 692.546 686.497 686.497 680.47 680.47 674.467 674.467 668.486 668.486 662.529 662.529 656.594 656.594 650.681 650.681 644.792 644.792 638.925 638.925 633.081 633.081 627.26 627.26 621.461 621.461 615.684 615.684 609.93 609.93 604.198 604.198 598.488 598.488 592.801 592.801 587.135 587.135 581.491 581.491 575.868 575.868 570.267 570.267 564.687 564.687 559.129 559.129 553.591 553.591 548.075 548.075 542.579 542.579 537.103 537.103 531.648 531.648 526.214 526.214 520.799 520.799 515.405 515.405 510.03 510.03 504.675 504.675 499.339 499.339 494.023 494.023 488.726 488.726 483.448 483.448 478.19 478.19 472.95 472.95 467.728 467.728 462.525 462.525 457.341 457.341 452.175 452.175 447.027 447.027 441.897 441.897 436.786 436.786 431.692 431.692 426.615 426.615 421.557 421.557 416.516 416.516 411.492 411.492 406.486 406.486 401.497 401.497 396.526 396.526 391.571 391.571 386.634 386.634 381.713 381.713 376.809 376.809 371.922 371.922 367.051 367.051 362.198 362.198 357.36 357.36 352.539 352.539 347.735 347.735 342.947 342.947 338.174 338.174 333.419 333.419 328.679 328.679 323.955 323.955 319.247 319.247 314.555 314.555 309.879 309.879 305.218 305.218 300.574 300.574 295.945 295.945 291.331 291.331 286.733 286.733 282.15 282.15 277.583 277.583 273.031 273.031 268.494 268.494 263.972 263.972 259.466 259.466 254.974 254.974 250.498 250.498 246.036 246.036 241.59 241.59 237.158 237.158 232.741 232.741 228.338 228.338 223.95 223.95 219.577 219.577 215.219 215.219 210.874 210.874 206.545 206.545 202.229 202.229 197.928 197.928 193.641 193.641 189.369 189.369 185.11 185.11 180.866 180.866 176.635 176.635 172.419 172.419 168.217 168.217 164.028 164.028 159.853 159.853 155.692 155.692 151.545 151.545 147.411 147.411 143.291 143.291 139.184 139.184 135.091 135.091 131.012 131.012 126.945 126.945 122.893 122.893 118.853 118.853 114.827 114.827 110.814 110.814 106.814 106.814 102.827 102.827 98.8528 98.8528 94.892 94.892 90.944 90.944 87.009 87.009 83.0868 83.0868 79.1774 79.1774 75.2807 75.2807 71.3968 71.3968 67.5255 67.5255 63.6668 63.6668 59.8206 59.8206 55.987 55.987 52.1658 52.1658 48.3571 48.3571 44.5607 44.5607 40.7766 40.7766 37.0048 37.0048 33.2452 33.2452 29.4978 29.4978 25.7626 25.7626 22.0394 22.0394 18.3283 18.3283 14.6292 14.6292 10.942 10.942 7.2668 7.2668 3.60342 3.60342 -0.0481355 -0.0481355 -3.68791 -3.68791 -7.31595 -7.31595 -10.9323 -10.9323 -14.537 -14.537 -18.1301 -18.1301 -21.7116 -21.7116 -25.2817 -25.2817 -28.8402 -28.8402 -32.3873 -32.3873 -35.923 -35.923 -39.4474 -39.4474 -42.9604 -42.9604 -46.4622 -46.4622 -49.9528 -49.9528 -53.4322 -53.4322 -56.9004 -56.9004 -60.3576 -60.3576 -63.8036 -63.8036 -67.2387 -67.2387 -70.6628 -70.6628 -74.0759 -74.0759 -77.4782 -77.4782 -80.8696 -80.8696 -84.2501 -84.2501 -87.6199 -87.6199 -90.979 -90.979 -94.3273 -94.3273 -97.665 -97.665 -100.992 -100.992 -104.309 -104.309 -107.614 -107.614 -110.91 -110.91 -114.195 -114.195 -117.469 -117.469 -120.733 -120.733 -123.987 -123.987 -127.231 -127.231 -130.464 -130.464 -133.687 -133.687 -136.899 -136.899 -140.102 -140.102 -143.294 -143.294 -146.477 -146.477 -149.649 -149.649 -152.811 -152.811 -155.963 -155.963 -159.106 -159.106 -162.238 -162.238 -165.36 -165.36 -168.473 -168.473 -171.576 -171.576 -174.669 -174.669 -177.752 -177.752 -180.826 -180.826 -183.89 -183.89 -186.944 -186.944 -189.989 -189.989 -193.024 -193.024 -196.049 -196.049 -199.066 -199.066 -202.072 -202.072 -205.069 -205.069 -208.057 -208.057 -211.036 -211.036 -214.005 -214.005 -216.964 -216.964 -219.915 -219.915 -222.856 -222.856 -225.788 -225.788 -228.711 -228.711 -231.625 -231.625 -234.53 -234.53 -237.425 -237.425 -240.312 -240.312 -243.189 -243.189 -246.058 -246.058 -248.917 -248.917 -251.768 -251.768 -254.61 -254.61 -257.443 -257.443 -260.267 -260.267 -263.082 -263.082 -265.889 -265.889 -268.687 -268.687 -271.476 -271.476 -274.256 -274.256 -277.028 -277.028 -279.792 -279.792 -282.546 -282.546 -285.292 -285.292 -288.03 -288.03 -290.759 -290.759 -293.48 -293.48 -296.192 -296.192 -298.896 -298.896 -301.591 -301.591 -304.278 -304.278 -306.957 -306.957 -309.628 -309.628 -312.29 -312.29 -314.944 -314.944 -317.59 -317.59 -320.227 -320.227 -322.857 -322.857 -325.478 -325.478 -328.091 -328.091 -330.697 -330.697 -333.294 -333.294 -335.883 -335.883 -338.464 -338.464 -341.038 -341.038 -343.603 -343.603 -346.16 -346.16 -348.71 -348.71 -351.252 -351.252 -353.786 -353.786 -356.312 -356.312 -358.83 -358.83 -361.341 -361.341 -363.844 -363.844 -366.339 -366.339 -368.826 -368.826 -371.306 -371.306 -373.779 -373.779 -376.243 -376.243 -378.701 -378.701 -381.15 -381.15 -383.593 -383.593 -386.027 -386.027 -388.455 -388.455 -390.874 -390.874 -393.287 -393.287 -395.692 -395.692 -398.09 -398.09 -400.48 -400.48 -402.863 -402.863 -405.239 -405.239 -407.607 -407.607 -409.969 -409.969 -412.323 -412.323 -414.67 -414.67 -417.009 -417.009 -419.342 -419.342 -421.668 -421.668 -423.986 -423.986 -426.297 -426.297 -428.602 -428.602 -430.899 -430.899 -433.19 -433.19 -435.473 -435.473 -437.749 -437.749 -440.019 -440.019 -442.281 -442.281 -444.537 -444.537 -446.786 -446.786 -449.028 -449.028 -451.263 -451.263 -453.492 -453.492 -455.714 -455.714 -457.928 -457.928 -460.137 -460.137 -462.338 -462.338 -464.533 -464.533 -466.721 -466.721 -468.903 -468.903 -471.078 -471.078 -473.246 -473.246 -475.408 -475.408 -477.563 -477.563 -479.712 -479.712 -481.855 -481.855 -483.99 -483.99 -486.12 -486.12 -488.243 -488.243 -490.359 -490.359 -492.469 -492.469 -494.573 -494.573 -496.67 -496.67 -498.761 -498.761 -500.846 -500.846 -502.925 -502.925 -504.997 -504.997 -507.063 -507.063 -509.122 -509.122 -511.176 -511.176 -513.223 -513.223 -515.264 -515.264 -517.299 -517.299 -519.328 -519.328 -521.351 -521.351 -523.368 -523.368 -525.378 -525.378 -527.383 -527.383 -529.381 -529.381 -531.374 -531.374 -533.36 -533.36 -535.341 -535.341 -537.316 -537.316 -539.284 -539.284 -541.247 -541.247 -543.204 -543.204 -545.155 -545.155 -547.1 -547.1 -549.039 -549.039 -550.973 -550.973 -552.901 -552.901 -554.823 -554.823 -556.739 -556.739 -558.649 -558.649 -560.554 -560.554 -562.453 -562.453 -564.346 -564.346 -566.234 -566.234 -568.116 -568.116 -569.992 -569.992 -571.863 -571.863 -573.728 -573.728 -575.587 -575.587 -577.441 -577.441 -579.29 -579.29 -581.133 -581.133 -582.97 -582.97 -584.802 -584.802 -586.628 -586.628 -588.449 -588.449 -590.265 -590.265 -592.075 -592.075 -593.88 -593.88 -595.679 -595.679 -597.473 -597.473 -599.261 -599.261 -601.045 -601.045 -602.823 -602.823 -604.595 -604.595 -606.363 -606.363 -608.125 -608.125 -609.881 -609.881 -611.633 -611.633 -613.379 -613.379 -615.12 -615.12 -616.856 -616.856 -618.587 -618.587 -620.313 -620.313 -622.033 -622.033 -623.749 -623.749 -625.459 -625.459 -627.164 -627.164 -628.864 -628.864 -630.559 -630.559 -632.249 -632.249 -633.934 -633.934 -635.614 -635.614 -637.289 -637.289 -638.959 -638.959 -640.624 -640.624 -642.284 -642.284 -643.939 -643.939 -645.59 -645.59 -647.235 -647.235 -648.875 -648.875 -650.511 -650.511 -652.142 -652.142 -653.767 -653.767 -655.388 -655.388 -657.005 -657.005 -658.616 -658.616 -660.223 -660.223 -661.825 -661.825 -663.422 -663.422 -665.014 -665.014 -666.602 -666.602 -668.185 -668.185 -669.763 -669.763 -671.336 -671.336 -672.905 -672.905 -674.47 -674.47 -676.029 -676.029 -677.584 -677.584 -679.135 -679.135 -680.68 -680.68 -682.222 -682.222 -683.758 -683.758 -685.29 -685.29 -686.818 -686.818 -688.341 -688.341 -689.859 -689.859 -691.373 -691.373 -692.883 -692.883 -694.388 -694.388 -695.888 -695.888 -697.385 -697.385 -698.876 -6