# vtk DataFile Version 3.0
#This file was generated by the deal.II library on 2020/9/6 at 3:42:18
ASCII
DATASET UNSTRUCTURED_GRID

POINTS 4096 double
1.5 0 0
1.5481 0 0
1.5481 0 0
1.59619 0 0
1.59619 0 0
1.64429 0 0
1.64429 0 0
1.69238 0 0
1.69238 0 0
1.74048 0 0
1.74048 0 0
1.78857 0 0
1.78857 0 0
1.83667 0 0
1.83667 0 0
1.88477 0 0
1.88477 0 0
1.93286 0 0
1.93286 0 0
1.98096 0 0
1.98096 0 0
2.02905 0 0
2.02905 0 0
2.07715 0 0
2.07715 0 0
2.12524 0 0
2.12524 0 0
2.17334 0 0
2.17334 0 0
2.22144 0 0
2.22144 0 0
2.26953 0 0
2.26953 0 0
2.31763 0 0
2.31763 0 0
2.36572 0 0
2.36572 0 0
2.41382 0 0
2.41382 0 0
2.46191 0 0
2.46191 0 0
2.51001 0 0
2.51001 0 0
2.55811 0 0
2.55811 0 0
2.6062 0 0
2.6062 0 0
2.6543 0 0
2.6543 0 0
2.70239 0 0
2.70239 0 0
2.75049 0 0
2.75049 0 0
2.79858 0 0
2.79858 0 0
2.84668 0 0
2.84668 0 0
2.89478 0 0
2.89478 0 0
2.94287 0 0
2.94287 0 0
2.99097 0 0
2.99097 0 0
3.03906 0 0
3.03906 0 0
3.08716 0 0
3.08716 0 0
3.13525 0 0
3.13525 0 0
3.18335 0 0
3.18335 0 0
3.23145 0 0
3.23145 0 0
3.27954 0 0
3.27954 0 0
3.32764 0 0
3.32764 0 0
3.37573 0 0
3.37573 0 0
3.42383 0 0
3.42383 0 0
3.47192 0 0
3.47192 0 0
3.52002 0 0
3.52002 0 0
3.56812 0 0
3.56812 0 0
3.61621 0 0
3.61621 0 0
3.66431 0 0
3.66431 0 0
3.7124 0 0
3.7124 0 0
3.7605 0 0
3.7605 0 0
3.80859 0 0
3.80859 0 0
3.85669 0 0
3.85669 0 0
3.90479 0 0
3.90479 0 0
3.95288 0 0
3.95288 0 0
4.00098 0 0
4.00098 0 0
4.04907 0 0
4.04907 0 0
4.09717 0 0
4.09717 0 0
4.14526 0 0
4.14526 0 0
4.19336 0 0
4.19336 0 0
4.24146 0 0
4.24146 0 0
4.28955 0 0
4.28955 0 0
4.33765 0 0
4.33765 0 0
4.38574 0 0
4.38574 0 0
4.43384 0 0
4.43384 0 0
4.48193 0 0
4.48193 0 0
4.53003 0 0
4.53003 0 0
4.57812 0 0
4.57812 0 0
4.62622 0 0
4.62622 0 0
4.67432 0 0
4.67432 0 0
4.72241 0 0
4.72241 0 0
4.77051 0 0
4.77051 0 0
4.8186 0 0
4.8186 0 0
4.8667 0 0
4.8667 0 0
4.91479 0 0
4.91479 0 0
4.96289 0 0
4.96289 0 0
5.01099 0 0
5.01099 0 0
5.05908 0 0
5.05908 0 0
5.10718 0 0
5.10718 0 0
5.15527 0 0
5.15527 0 0
5.20337 0 0
5.20337 0 0
5.25146 0 0
5.25146 0 0
5.29956 0 0
5.29956 0 0
5.34766 0 0
5.34766 0 0
5.39575 0 0
5.39575 0 0
5.44385 0 0
5.44385 0 0
5.49194 0 0
5.49194 0 0
5.54004 0 0
5.54004 0 0
5.58813 0 0
5.58813 0 0
5.63623 0 0
5.63623 0 0
5.68433 0 0
5.68433 0 0
5.73242 0 0
5.73242 0 0
5.78052 0 0
5.78052 0 0
5.82861 0 0
5.82861 0 0
5.87671 0 0
5.87671 0 0
5.9248 0 0
5.9248 0 0
5.9729 0 0
5.9729 0 0
6.021 0 0
6.021 0 0
6.06909 0 0
6.06909 0 0
6.11719 0 0
6.11719 0 0
6.16528 0 0
6.16528 0 0
6.21338 0 0
6.21338 0 0
6.26147 0 0
6.26147 0 0
6.30957 0 0
6.30957 0 0
6.35767 0 0
6.35767 0 0
6.40576 0 0
6.40576 0 0
6.45386 0 0
6.45386 0 0
6.50195 0 0
6.50195 0 0
6.55005 0 0
6.55005 0 0
6.59814 0 0
6.59814 0 0
6.64624 0 0
6.64624 0 0
6.69434 0 0
6.69434 0 0
6.74243 0 0
6.74243 0 0
6.79053 0 0
6.79053 0 0
6.83862 0 0
6.83862 0 0
6.88672 0 0
6.88672 0 0
6.93481 0 0
6.93481 0 0
6.98291 0 0
6.98291 0 0
7.03101 0 0
7.03101 0 0
7.0791 0 0
7.0791 0 0
7.1272 0 0
7.1272 0 0
7.17529 0 0
7.17529 0 0
7.22339 0 0
7.22339 0 0
7.27148 0 0
7.27148 0 0
7.31958 0 0
7.31958 0 0
7.36768 0 0
7.36768 0 0
7.41577 0 0
7.41577 0 0
7.46387 0 0
7.46387 0 0
7.51196 0 0
7.51196 0 0
7.56006 0 0
7.56006 0 0
7.60815 0 0
7.60815 0 0
7.65625 0 0
7.65625 0 0
7.70435 0 0
7.70435 0 0
7.75244 0 0
7.75244 0 0
7.80054 0 0
7.80054 0 0
7.84863 0 0
7.84863 0 0
7.89673 0 0
7.89673 0 0
7.94482 0 0
7.94482 0 0
7.99292 0 0
7.99292 0 0
8.04102 0 0
8.04102 0 0
8.08911 0 0
8.08911 0 0
8.13721 0 0
8.13721 0 0
8.1853 0 0
8.1853 0 0
8.2334 0 0
8.2334 0 0
8.28149 0 0
8.28149 0 0
8.32959 0 0
8.32959 0 0
8.37769 0 0
8.37769 0 0
8.42578 0 0
8.42578 0 0
8.47388 0 0
8.47388 0 0
8.52197 0 0
8.52197 0 0
8.57007 0 0
8.57007 0 0
8.61816 0 0
8.61816 0 0
8.66626 0 0
8.66626 0 0
8.71436 0 0
8.71436 0 0
8.76245 0 0
8.76245 0 0
8.81055 0 0
8.81055 0 0
8.85864 0 0
8.85864 0 0
8.90674 0 0
8.90674 0 0
8.95483 0 0
8.95483 0 0
9.00293 0 0
9.00293 0 0
9.05103 0 0
9.05103 0 0
9.09912 0 0
9.09912 0 0
9.14722 0 0
9.14722 0 0
9.19531 0 0
9.19531 0 0
9.24341 0 0
9.24341 0 0
9.2915 0 0
9.2915 0 0
9.3396 0 0
9.3396 0 0
9.3877 0 0
9.3877 0 0
9.43579 0 0
9.43579 0 0
9.48389 0 0
9.48389 0 0
9.53198 0 0
9.53198 0 0
9.58008 0 0
9.58008 0 0
9.62817 0 0
9.62817 0 0
9.67627 0 0
9.67627 0 0
9.72437 0 0
9.72437 0 0
9.77246 0 0
9.77246 0 0
9.82056 0 0
9.82056 0 0
9.86865 0 0
9.86865 0 0
9.91675 0 0
9.91675 0 0
9.96484 0 0
9.96484 0 0
10.0129 0 0
10.0129 0 0
10.061 0 0
10.061 0 0
10.1091 0 0
10.1091 0 0
10.1572 0 0
10.1572 0 0
10.2053 0 0
10.2053 0 0
10.2534 0 0
10.2534 0 0
10.3015 0 0
10.3015 0 0
10.3496 0 0
10.3496 0 0
10.3977 0 0
10.3977 0 0
10.4458 0 0
10.4458 0 0
10.4939 0 0
10.4939 0 0
10.542 0 0
10.542 0 0
10.5901 0 0
10.5901 0 0
10.6382 0 0
10.6382 0 0
10.6863 0 0
10.6863 0 0
10.7344 0 0
10.7344 0 0
10.7825 0 0
10.7825 0 0
10.8306 0 0
10.8306 0 0
10.8787 0 0
10.8787 0 0
10.9268 0 0
10.9268 0 0
10.9749 0 0
10.9749 0 0
11.0229 0 0
11.0229 0 0
11.071 0 0
11.071 0 0
11.1191 0 0
11.1191 0 0
11.1672 0 0
11.1672 0 0
11.2153 0 0
11.2153 0 0
11.2634 0 0
11.2634 0 0
11.3115 0 0
11.3115 0 0
11.3596 0 0
11.3596 0 0
11.4077 0 0
11.4077 0 0
11.4558 0 0
11.4558 0 0
11.5039 0 0
11.5039 0 0
11.552 0 0
11.552 0 0
11.6001 0 0
11.6001 0 0
11.6482 0 0
11.6482 0 0
11.6963 0 0
11.6963 0 0
11.7444 0 0
11.7444 0 0
11.7925 0 0
11.7925 0 0
11.8406 0 0
11.8406 0 0
11.8887 0 0
11.8887 0 0
11.9368 0 0
11.9368 0 0
11.9849 0 0
11.9849 0 0
12.033 0 0
12.033 0 0
12.0811 0 0
12.0811 0 0
12.1292 0 0
12.1292 0 0
12.1772 0 0
12.1772 0 0
12.2253 0 0
12.2253 0 0
12.2734 0 0
12.2734 0 0
12.3215 0 0
12.3215 0 0
12.3696 0 0
12.3696 0 0
12.4177 0 0
12.4177 0 0
12.4658 0 0
12.4658 0 0
12.5139 0 0
12.5139 0 0
12.562 0 0
12.562 0 0
12.6101 0 0
12.6101 0 0
12.6582 0 0
12.6582 0 0
12.7063 0 0
12.7063 0 0
12.7544 0 0
12.7544 0 0
12.8025 0 0
12.8025 0 0
12.8506 0 0
12.8506 0 0
12.8987 0 0
12.8987 0 0
12.9468 0 0
12.9468 0 0
12.9949 0 0
12.9949 0 0
13.043 0 0
13.043 0 0
13.0911 0 0
13.0911 0 0
13.1392 0 0
13.1392 0 0
13.1873 0 0
13.1873 0 0
13.2354 0 0
13.2354 0 0
13.2834 0 0
13.2834 0 0
13.3315 0 0
13.3315 0 0
13.3796 0 0
13.3796 0 0
13.4277 0 0
13.4277 0 0
13.4758 0 0
13.4758 0 0
13.5239 0 0
13.5239 0 0
13.572 0 0
13.572 0 0
13.6201 0 0
13.6201 0 0
13.6682 0 0
13.6682 0 0
13.7163 0 0
13.7163 0 0
13.7644 0 0
13.7644 0 0
13.8125 0 0
13.8125 0 0
13.8606 0 0
13.8606 0 0
13.9087 0 0
13.9087 0 0
13.9568 0 0
13.9568 0 0
14.0049 0 0
14.0049 0 0
14.053 0 0
14.053 0 0
14.1011 0 0
14.1011 0 0
14.1492 0 0
14.1492 0 0
14.1973 0 0
14.1973 0 0
14.2454 0 0
14.2454 0 0
14.2935 0 0
14.2935 0 0
14.3416 0 0
14.3416 0 0
14.3896 0 0
14.3896 0 0
14.4377 0 0
14.4377 0 0
14.4858 0 0
14.4858 0 0
14.5339 0 0
14.5339 0 0
14.582 0 0
14.582 0 0
14.6301 0 0
14.6301 0 0
14.6782 0 0
14.6782 0 0
14.7263 0 0
14.7263 0 0
14.7744 0 0
14.7744 0 0
14.8225 0 0
14.8225 0 0
14.8706 0 0
14.8706 0 0
14.9187 0 0
14.9187 0 0
14.9668 0 0
14.9668 0 0
15.0149 0 0
15.0149 0 0
15.063 0 0
15.063 0 0
15.1111 0 0
15.1111 0 0
15.1592 0 0
15.1592 0 0
15.2073 0 0
15.2073 0 0
15.2554 0 0
15.2554 0 0
15.3035 0 0
15.3035 0 0
15.3516 0 0
15.3516 0 0
15.3997 0 0
15.3997 0 0
15.4478 0 0
15.4478 0 0
15.4958 0 0
15.4958 0 0
15.5439 0 0
15.5439 0 0
15.592 0 0
15.592 0 0
15.6401 0 0
15.6401 0 0
15.6882 0 0
15.6882 0 0
15.7363 0 0
15.7363 0 0
15.7844 0 0
15.7844 0 0
15.8325 0 0
15.8325 0 0
15.8806 0 0
15.8806 0 0
15.9287 0 0
15.9287 0 0
15.9768 0 0
15.9768 0 0
16.0249 0 0
16.0249 0 0
16.073 0 0
16.073 0 0
16.1211 0 0
16.1211 0 0
16.1692 0 0
16.1692 0 0
16.2173 0 0
16.2173 0 0
16.2654 0 0
16.2654 0 0
16.3135 0 0
16.3135 0 0
16.3616 0 0
16.3616 0 0
16.4097 0 0
16.4097 0 0
16.4578 0 0
16.4578 0 0
16.5059 0 0
16.5059 0 0
16.554 0 0
16.554 0 0
16.6021 0 0
16.6021 0 0
16.6501 0 0
16.6501 0 0
16.6982 0 0
16.6982 0 0
16.7463 0 0
16.7463 0 0
16.7944 0 0
16.7944 0 0
16.8425 0 0
16.8425 0 0
16.8906 0 0
16.8906 0 0
16.9387 0 0
16.9387 0 0
16.9868 0 0
16.9868 0 0
17.0349 0 0
17.0349 0 0
17.083 0 0
17.083 0 0
17.1311 0 0
17.1311 0 0
17.1792 0 0
17.1792 0 0
17.2273 0 0
17.2273 0 0
17.2754 0 0
17.2754 0 0
17.3235 0 0
17.3235 0 0
17.3716 0 0
17.3716 0 0
17.4197 0 0
17.4197 0 0
17.4678 0 0
17.4678 0 0
17.5159 0 0
17.5159 0 0
17.564 0 0
17.564 0 0
17.6121 0 0
17.6121 0 0
17.6602 0 0
17.6602 0 0
17.7083 0 0
17.7083 0 0
17.7563 0 0
17.7563 0 0
17.8044 0 0
17.8044 0 0
17.8525 0 0
17.8525 0 0
17.9006 0 0
17.9006 0 0
17.9487 0 0
17.9487 0 0
17.9968 0 0
17.9968 0 0
18.0449 0 0
18.0449 0 0
18.093 0 0
18.093 0 0
18.1411 0 0
18.1411 0 0
18.1892 0 0
18.1892 0 0
18.2373 0 0
18.2373 0 0
18.2854 0 0
18.2854 0 0
18.3335 0 0
18.3335 0 0
18.3816 0 0
18.3816 0 0
18.4297 0 0
18.4297 0 0
18.4778 0 0
18.4778 0 0
18.5259 0 0
18.5259 0 0
18.574 0 0
18.574 0 0
18.6221 0 0
18.6221 0 0
18.6702 0 0
18.6702 0 0
18.7183 0 0
18.7183 0 0
18.7664 0 0
18.7664 0 0
18.8145 0 0
18.8145 0 0
18.8625 0 0
18.8625 0 0
18.9106 0 0
18.9106 0 0
18.9587 0 0
18.9587 0 0
19.0068 0 0
19.0068 0 0
19.0549 0 0
19.0549 0 0
19.103 0 0
19.103 0 0
19.1511 0 0
19.1511 0 0
19.1992 0 0
19.1992 0 0
19.2473 0 0
19.2473 0 0
19.2954 0 0
19.2954 0 0
19.3435 0 0
19.3435 0 0
19.3916 0 0
19.3916 0 0
19.4397 0 0
19.4397 0 0
19.4878 0 0
19.4878 0 0
19.5359 0 0
19.5359 0 0
19.584 0 0
19.584 0 0
19.6321 0 0
19.6321 0 0
19.6802 0 0
19.6802 0 0
19.7283 0 0
19.7283 0 0
19.7764 0 0
19.7764 0 0
19.8245 0 0
19.8245 0 0
19.8726 0 0
19.8726 0 0
19.9207 0 0
19.9207 0 0
19.9688 0 0
19.9688 0 0
20.0168 0 0
20.0168 0 0
20.0649 0 0
20.0649 0 0
20.113 0 0
20.113 0 0
20.1611 0 0
20.1611 0 0
20.2092 0 0
20.2092 0 0
20.2573 0 0
20.2573 0 0
20.3054 0 0
20.3054 0 0
20.3535 0 0
20.3535 0 0
20.4016 0 0
20.4016 0 0
20.4497 0 0
20.4497 0 0
20.4978 0 0
20.4978 0 0
20.5459 0 0
20.5459 0 0
20.594 0 0
20.594 0 0
20.6421 0 0
20.6421 0 0
20.6902 0 0
20.6902 0 0
20.7383 0 0
20.7383 0 0
20.7864 0 0
20.7864 0 0
20.8345 0 0
20.8345 0 0
20.8826 0 0
20.8826 0 0
20.9307 0 0
20.9307 0 0
20.9788 0 0
20.9788 0 0
21.0269 0 0
21.0269 0 0
21.075 0 0
21.075 0 0
21.123 0 0
21.123 0 0
21.1711 0 0
21.1711 0 0
21.2192 0 0
21.2192 0 0
21.2673 0 0
21.2673 0 0
21.3154 0 0
21.3154 0 0
21.3635 0 0
21.3635 0 0
21.4116 0 0
[...]
POINT_DATA 4096
SCALARS solution_0 double 1
LOOKUP_TABLE default
5.52289e+07 5.41613e+07 5.41613e+07 5.31711e+07 5.31711e+07 5.22503e+07 5.22503e+07 5.13918e+07 5.13918e+07 5.05893e+07 5.05893e+07 4.98375e+07 4.98375e+07 4.91314e+07 4.91314e+07 4.84669e+07 4.84669e+07 4.78399e+07 4.78399e+07 4.72473e+07 4.72473e+07 4.6686e+07 4.6686e+07 4.61532e+07 4.61532e+07 4.56465e+07 4.56465e+07 4.51638e+07 4.51638e+07 4.47031e+07 4.47031e+07 4.42626e+07 4.42626e+07 4.38408e+07 4.38408e+07 4.34362e+07 4.34362e+07 4.30474e+07 4.30474e+07 4.26733e+07 4.26733e+07 4.23129e+07 4.23129e+07 4.1965e+07 4.1965e+07 4.16289e+07 4.16289e+07 4.13036e+07 4.13036e+07 4.09885e+07 4.09885e+07 4.06829e+07 4.06829e+07 4.0386e+07 4.0386e+07 4.00974e+07 4.00974e+07 3.98165e+07 3.98165e+07 3.95428e+07 3.95428e+07 3.92758e+07 3.92758e+07 3.90152e+07 3.90152e+07 3.87605e+07 3.87605e+07 3.85114e+07 3.85114e+07 3.82675e+07 3.82675e+07 3.80286e+07 3.80286e+07 3.77944e+07 3.77944e+07 3.75645e+07 3.75645e+07 3.73388e+07 3.73388e+07 3.7117e+07 3.7117e+07 3.6899e+07 3.6899e+07 3.66845e+07 3.66845e+07 3.64733e+07 3.64733e+07 3.62652e+07 3.62652e+07 3.60602e+07 3.60602e+07 3.5858e+07 3.5858e+07 3.56586e+07 3.56586e+07 3.54617e+07 3.54617e+07 3.52673e+07 3.52673e+07 3.50753e+07 3.50753e+07 3.48855e+07 3.48855e+07 3.46979e+07 3.46979e+07 3.45123e+07 3.45123e+07 3.43287e+07 3.43287e+07 3.4147e+07 3.4147e+07 3.39671e+07 3.39671e+07 3.37889e+07 3.37889e+07 3.36124e+07 3.36124e+07 3.34375e+07 3.34375e+07 3.32642e+07 3.32642e+07 3.30924e+07 3.30924e+07 3.2922e+07 3.2922e+07 3.2753e+07 3.2753e+07 3.25854e+07 3.25854e+07 3.24191e+07 3.24191e+07 3.2254e+07 3.2254e+07 3.20902e+07 3.20902e+07 3.19276e+07 3.19276e+07 3.17661e+07 3.17661e+07 3.16057e+07 3.16057e+07 3.14465e+07 3.14465e+07 3.12883e+07 3.12883e+07 3.11311e+07 3.11311e+07 3.0975e+07 3.0975e+07 3.08198e+07 3.08198e+07 3.06656e+07 3.06656e+07 3.05124e+07 3.05124e+07 3.03601e+07 3.03601e+07 3.02087e+07 3.02087e+07 3.00581e+07 3.00581e+07 2.99085e+07 2.99085e+07 2.97597e+07 2.97597e+07 2.96117e+07 2.96117e+07 2.94646e+07 2.94646e+07 2.93182e+07 2.93182e+07 2.91727e+07 2.91727e+07 2.9028e+07 2.9028e+07 2.8884e+07 2.8884e+07 2.87408e+07 2.87408e+07 2.85983e+07 2.85983e+07 2.84566e+07 2.84566e+07 2.83156e+07 2.83156e+07 2.81753e+07 2.81753e+07 2.80358e+07 2.80358e+07 2.78969e+07 2.78969e+07 2.77588e+07 2.77588e+07 2.76213e+07 2.76213e+07 2.74846e+07 2.74846e+07 2.73485e+07 2.73485e+07 2.7213e+07 2.7213e+07 2.70783e+07 2.70783e+07 2.69442e+07 2.69442e+07 2.68107e+07 2.68107e+07 2.66779e+07 2.66779e+07 2.65458e+07 2.65458e+07 2.64142e+07 2.64142e+07 2.62833e+07 2.62833e+07 2.61531e+07 2.61531e+07 2.60234e+07 2.60234e+07 2.58944e+07 2.58944e+07 2.5766e+07 2.5766e+07 2.56382e+07 2.56382e+07 2.5511e+07 2.5511e+07 2.53844e+07 2.53844e+07 2.52584e+07 2.52584e+07 2.51331e+07 2.51331e+07 2.50083e+07 2.50083e+07 2.48841e+07 2.48841e+07 2.47605e+07 2.47605e+07 2.46374e+07 2.46374e+07 2.4515e+07 2.4515e+07 2.43931e+07 2.43931e+07 2.42718e+07 2.42718e+07 2.41511e+07 2.41511e+07 2.4031e+07 2.4031e+07 2.39114e+07 2.39114e+07 2.37924e+07 2.37924e+07 2.36739e+07 2.36739e+07 2.3556e+07 2.3556e+07 2.34387e+07 2.34387e+07 2.33219e+07 2.33219e+07 2.32057e+07 2.32057e+07 2.309e+07 2.309e+07 2.29749e+07 2.29749e+07 2.28603e+07 2.28603e+07 2.27463e+07 2.27463e+07 2.26328e+07 2.26328e+07 2.25199e+07 2.25199e+07 2.24075e+07 2.24075e+07 2.22956e+07 2.22956e+07 2.21843e+07 2.21843e+07 2.20735e+07 2.20735e+07 2.19633e+07 2.19633e+07 2.18535e+07 2.18535e+07 2.17443e+07 2.17443e+07 2.16356e+07 2.16356e+07 2.15275e+07 2.15275e+07 2.14198e+07 2.14198e+07 2.13127e+07 2.13127e+07 2.12061e+07 2.12061e+07 2.11001e+07 2.11001e+07 2.09945e+07 2.09945e+07 2.08894e+07 2.08894e+07 2.07849e+07 2.07849e+07 2.06809e+07 2.06809e+07 2.05773e+07 2.05773e+07 2.04743e+07 2.04743e+07 2.03718e+07 2.03718e+07 2.02698e+07 2.02698e+07 2.01682e+07 2.01682e+07 2.00672e+07 2.00672e+07 1.99667e+07 1.99667e+07 1.98667e+07 1.98667e+07 1.97671e+07 1.97671e+07 1.96681e+07 1.96681e+07 1.95695e+07 1.95695e+07 1.94714e+07 1.94714e+07 1.93738e+07 1.93738e+07 1.92767e+07 1.92767e+07 1.91801e+07 1.91801e+07 1.9084e+07 1.9084e+07 1.89883e+07 1.89883e+07 1.88931e+07 1.88931e+07 1.87984e+07 1.87984e+07 1.87041e+07 1.87041e+07 1.86104e+07 1.86104e+07 1.8517e+07 1.8517e+07 1.84242e+07 1.84242e+07 1.83318e+07 1.83318e+07 1.82399e+07 1.82399e+07 1.81485e+07 1.81485e+07 1.80575e+07 1.80575e+07 1.79669e+07 1.79669e+07 1.78768e+07 1.78768e+07 1.77872e+07 1.77872e+07 1.7698e+07 1.7698e+07 1.76093e+07 1.76093e+07 1.7521e+07 1.7521e+07 1.74332e+07 1.74332e+07 1.73458e+07 1.73458e+07 1.72588e+07 1.72588e+07 1.71723e+07 1.71723e+07 1.70863e+07 1.70863e+07 1.70006e+07 1.70006e+07 1.69154e+07 1.69154e+07 1.68307e+07 1.68307e+07 1.67464e+07 1.67464e+07 1.66625e+07 1.66625e+07 1.6579e+07 1.6579e+07 1.64959e+07 1.64959e+07 1.64133e+07 1.64133e+07 1.63311e+07 1.63311e+07 1.62493e+07 1.62493e+07 1.6168e+07 1.6168e+07 1.6087e+07 1.6087e+07 1.60065e+07 1.60065e+07 1.59264e+07 1.59264e+07 1.58467e+07 1.58467e+07 1.57674e+07 1.57674e+07 1.56885e+07 1.56885e+07 1.561e+07 1.561e+07 1.55319e+07 1.55319e+07 1.54542e+07 1.54542e+07 1.53769e+07 1.53769e+07 1.53e+07 1.53e+07 1.52236e+07 1.52236e+07 1.51475e+07 1.51475e+07 1.50718e+07 1.50718e+07 1.49965e+07 1.49965e+07 1.49215e+07 1.49215e+07 1.4847e+07 1.4847e+07 1.47729e+07 1.47729e+07 1.46991e+07 1.46991e+07 1.46257e+07 1.46257e+07 1.45527e+07 1.45527e+07 1.44801e+07 1.44801e+07 1.44078e+07 1.44078e+07 1.4336e+07 1.4336e+07 1.42645e+07 1.42645e+07 1.41933e+07 1.41933e+07 1.41226e+07 1.41226e+07 1.40522e+07 1.40522e+07 1.39821e+07 1.39821e+07 1.39125e+07 1.39125e+07 1.38432e+07 1.38432e+07 1.37742e+07 1.37742e+07 1.37056e+07 1.37056e+07 1.36374e+07 1.36374e+07 1.35695e+07 1.35695e+07 1.3502e+07 1.3502e+07 1.34348e+07 1.34348e+07 1.3368e+07 1.3368e+07 1.33015e+07 1.33015e+07 1.32354e+07 1.32354e+07 1.31696e+07 1.31696e+07 1.31042e+07 1.31042e+07 1.30391e+07 1.30391e+07 1.29743e+07 1.29743e+07 1.29099e+07 1.29099e+07 1.28458e+07 1.28458e+07 1.27821e+07 1.27821e+07 1.27186e+07 1.27186e+07 1.26555e+07 1.26555e+07 1.25928e+07 1.25928e+07 1.25303e+07 1.25303e+07 1.24682e+07 1.24682e+07 1.24065e+07 1.24065e+07 1.2345e+07 1.2345e+07 1.22838e+07 1.22838e+07 1.2223e+07 1.2223e+07 1.21625e+07 1.21625e+07 1.21023e+07 1.21023e+07 1.20424e+07 1.20424e+07 1.19829e+07 1.19829e+07 1.19236e+07 1.19236e+07 1.18647e+07 1.18647e+07 1.1806e+07 1.1806e+07 1.17477e+07 1.17477e+07 1.16896e+07 1.16896e+07 1.16319e+07 1.16319e+07 1.15745e+07 1.15745e+07 1.15174e+07 1.15174e+07 1.14605e+07 1.14605e+07 1.1404e+07 1.1404e+07 1.13478e+07 1.13478e+07 1.12918e+07 1.12918e+07 1.12361e+07 1.12361e+07 1.11808e+07 1.11808e+07 1.11257e+07 1.11257e+07 1.10709e+07 1.10709e+07 1.10164e+07 1.10164e+07 1.09622e+07 1.09622e+07 1.09082e+07 1.09082e+07 1.08546e+07 1.08546e+07 1.08012e+07 1.08012e+07 1.07481e+07 1.07481e+07 1.06952e+07 1.06952e+07 1.06427e+07 1.06427e+07 1.05904e+07 1.05904e+07 1.05384e+07 1.05384e+07 1.04866e+07 1.04866e+07 1.04352e+07 1.04352e+07 1.0384e+07 1.0384e+07 1.0333e+07 1.0333e+07 1.02823e+07 1.02823e+07 1.02319e+07 1.02319e+07 1.01818e+07 1.01818e+07 1.01319e+07 1.01319e+07 1.00823e+07 1.00823e+07 1.00329e+07 1.00329e+07 9.98375e+06 9.98375e+06 9.93489e+06 9.93489e+06 9.88627e+06 9.88627e+06 9.83791e+06 9.83791e+06 9.78979e+06 9.78979e+06 9.74193e+06 9.74193e+06 9.69431e+06 9.69431e+06 9.64694e+06 9.64694e+06 9.59981e+06 9.59981e+06 9.55292e+06 9.55292e+06 9.50628e+06 9.50628e+06 9.45987e+06 9.45987e+06 9.41371e+06 9.41371e+06 9.36778e+06 9.36778e+06 9.32209e+06 9.32209e+06 9.27664e+06 9.27664e+06 9.23142e+06 9.23142e+06 9.18643e+06 9.18643e+06 9.14167e+06 9.14167e+06 9.09714e+06 9.09714e+06 9.05284e+06 9.05284e+06 9.00877e+06 9.00877e+06 8.96493e+06 8.96493e+06 8.92131e+06 8.92131e+06 8.87791e+06 8.87791e+06 8.83473e+06 8.83473e+06 8.79178e+06 8.79178e+06 8.74904e+06 8.74904e+06 8.70653e+06 8.70653e+06 8.66423e+06 8.66423e+06 8.62215e+06 8.62215e+06 8.58028e+06 8.58028e+06 8.53862e+06 8.53862e+06 8.49718e+06 8.49718e+06 8.45595e+06 8.45595e+06 8.41493e+06 8.41493e+06 8.37412e+06 8.37412e+06 8.33352e+06 8.33352e+06 8.29312e+06 8.29312e+06 8.25293e+06 8.25293e+06 8.21294e+06 8.21294e+06 8.17316e+06 8.17316e+06 8.13358e+06 8.13358e+06 8.09419e+06 8.09419e+06 8.05501e+06 8.05501e+06 8.01603e+06 8.01603e+06 7.97724e+06 7.97724e+06 7.93865e+06 7.93865e+06 7.90026e+06 7.90026e+06 7.86206e+06 7.86206e+06 7.82405e+06 7.82405e+06 7.78624e+06 7.78624e+06 7.74861e+06 7.74861e+06 7.71118e+06 7.71118e+06 7.67393e+06 7.67393e+06 7.63687e+06 7.63687e+06 7.6e+06 7.6e+06 7.56331e+06 7.56331e+06 7.52681e+06 7.52681e+06 7.49049e+06 7.49049e+06 7.45435e+06 7.45435e+06 7.4184e+06 7.4184e+06 7.38262e+06 7.38262e+06 7.34703e+06 7.34703e+06 7.31161e+06 7.31161e+06 7.27637e+06 7.27637e+06 7.2413e+06 7.2413e+06 7.20641e+06 7.20641e+06 7.1717e+06 7.1717e+06 7.13716e+06 7.13716e+06 7.10279e+06 7.10279e+06 7.06859e+06 7.06859e+06 7.03456e+06 7.03456e+06 7.0007e+06 7.0007e+06 6.96701e+06 6.96701e+06 6.93349e+06 6.93349e+06 6.90013e+06 6.90013e+06 6.86694e+06 6.86694e+06 6.83392e+06 6.83392e+06 6.80106e+06 6.80106e+06 6.76836e+06 6.76836e+06 6.73582e+06 6.73582e+06 6.70344e+06 6.70344e+06 6.67122e+06 6.67122e+06 6.63917e+06 6.63917e+06 6.60727e+06 6.60727e+06 6.57552e+06 6.57552e+06 6.54394e+06 6.54394e+06 6.51251e+06 6.51251e+06 6.48123e+06 6.48123e+06 6.45011e+06 6.45011e+06 6.41914e+06 6.41914e+06 6.38832e+06 6.38832e+06 6.35766e+06 6.35766e+06 6.32714e+06 6.32714e+06 6.29678e+06 6.29678e+06 6.26656e+06 6.26656e+06 6.23649e+06 6.23649e+06 6.20656e+06 6.20656e+06 6.17679e+06 6.17679e+06 6.14716e+06 6.14716e+06 6.11767e+06 6.11767e+06 6.08832e+06 6.08832e+06 6.05912e+06 6.05912e+06 6.03007e+06 6.03007e+06 6.00115e+06 6.00115e+06 5.97237e+06 5.97237e+06 5.94373e+06 5.94373e+06 5.91524e+06 5.91524e+06 5.88688e+06 5.88688e+06 5.85865e+06 5.85865e+06 5.83056e+06 5.83056e+06 5.80261e+06 5.80261e+06 5.7748e+06 5.7748e+06 5.74712e+06 5.74712e+06 5.71957e+06 5.71957e+06 5.69215e+06 5.69215e+06 5.66487e+06 5.66487e+06 5.63772e+06 5.63772e+06 5.6107e+06 5.6107e+06 5.5838e+06 5.5838e+06 5.55704e+06 5.55704e+06 5.5304e+06 5.5304e+06 5.5039e+06 5.5039e+06 5.47752e+06 5.47752e+06 5.45126e+06 5.45126e+06 5.42513e+06 5.42513e+06 5.39913e+06 5.39913e+06 5.37325e+06 5.37325e+06 5.34749e+06 5.34749e+06 5.32186e+06 5.32186e+06 5.29635e+06 5.29635e+06 5.27096e+06 5.27096e+06 5.24569e+06 5.24569e+06 5.22054e+06 5.22054e+06 5.19551e+06 5.19551e+06 5.1706e+06 5.1706e+06 5.1458e+06 5.1458e+06 5.12112e+06 5.12112e+06 5.09656e+06 5.09656e+06 5.07212e+06 5.07212e+06 5.04779e+06 5.04779e+06 5.02358e+06 5.02358e+06 4.99948e+06 4.99948e+06 4.97549e+06 4.97549e+06 4.95162e+06 4.95162e+06 4.92785e+06 4.92785e+06 4.9042e+06 4.9042e+06 4.88066e+06 4.88066e+06 4.85723e+06 4.85723e+06 4.83392e+06 4.83392e+06 4.8107e+06 4.8107e+06 4.7876e+06 4.7876e+06 4.76461e+06 4.76461e+06 4.74172e+06 4.74172e+06 4.71894e+06 4.71894e+06 4.69627e+06 4.69627e+06 4.6737e+06 4.6737e+06 4.65124e+06 4.65124e+06 4.62888e+06 4.62888e+06 4.60662e+06 4.60662e+06 4.58447e+06 4.58447e+06 4.56242e+06 4.56242e+06 4.54048e+06 4.54048e+06 4.51863e+06 4.51863e+06 4.49688e+06 4.49688e+06 4.47524e+06 4.47524e+06 4.4537e+06 4.4537e+06 4.43225e+06 4.43225e+06 4.4109e+06 4.4109e+06 4.38966e+06 4.38966e+06 4.36851e+06 4.36851e+06 4.34745e+06 4.34745e+06 4.3265e+06 4.3265e+06 4.30563e+06 4.30563e+06 4.28487e+06 4.28487e+06 4.2642e+06 4.2642e+06 4.24362e+06 4.24362e+06 4.22314e+06 4.22314e+06 4.20275e+06 4.20275e+06 4.18246e+06 4.18246e+06 4.16226e+06 4.16226e+06 4.14214e+06 4.14214e+06 4.12213e+06 4.12213e+06 4.1022e+06 4.1022e+06 4.08236e+06 4.08236e+06 4.06261e+06 4.06261e+06 4.04295e+06 4.04295e+06 4.02338e+06 4.02338e+06 4.0039e+06 4.0039e+06 3.98451e+06 3.98451e+06 3.9652e+06 3.9652e+06 3.94599e+06 3.94599e+06 3.92686e+06 3.92686e+06 3.90781e+06 3.90781e+06 3.88885e+06 3.88885e+06 3.86998e+06 3.86998e+06 3.85119e+06 3.85119e+06 3.83248e+06 3.83248e+06 3.81386e+06 3.81386e+06 3.79532e+06 3.79532e+06 3.77687e+06 3.77687e+06 3.75849e+06 3.75849e+06 3.7402e+06 3.7402e+06 3.72199e+06 3.72199e+06 3.70387e+06 3.70387e+06 3.68582e+06 3.68582e+06 3.66785e+06 3.66785e+06 3.64996e+06 3.64996e+06 3.63216e+06 3.63216e+06 3.61443e+06 3.61443e+06 3.59678e+06 3.59678e+06 3.57921e+06 3.57921e+06 3.56171e+06 3.56171e+06 3.5443e+06 3.5443e+06 3.52696e+06 3.52696e+06 3.5097e+06 3.5097e+06 3.49251e+06 3.49251e+06 3.4754e+06 3.4754e+06 3.45836e+06 3.45836e+06 3.4414e+06 3.4414e+06 3.42451e+06 3.42451e+06 3.4077e+06 3.4077e+06 3.39096e+06 3.39096e+06 3.3743e+06 3.3743e+06 3.35771e+06 3.35771e+06 3.34119e+06 3.34119e+06 3.32474e+06 3.32474e+06 3.30836e+06 3.30836e+06 3.29206e+06 3.29206e+06 3.27583e+06 3.27583e+06 3.25967e+06 3.25967e+06 3.24357e+06 3.24357e+06 3.22755e+06 3.22755e+06 3.2116e+06 3.2116e+06 3.19572e+06 3.19572e+06 3.1799e+06 3.1799e+06 3.16416e+06 3.16416e+06 3.14848e+06 3.14848e+06 3.13287e+06 3.13287e+06 3.11732e+06 3.11732e+06 3.10185e+06 3.10185e+06 3.08644e+06 3.08644e+06 3.0711e+06 3.0711e+06 3.05582e+06 3.05582e+06 3.04061e+06 3.04061e+06 3.02547e+06 3.02547e+06 3.01038e+06 3.01038e+06 2.99537e+06 2.99537e+06 2.98042e+06 2.98042e+06 2.96553e+06 2.96553e+06 2.95071e+06 2.95071e+06 2.93595e+06 2.93595e+06 2.92125e+06 2.92125e+06 2.90661e+06 2.90661e+06 2.89204e+06 2.89204e+06 2.87753e+06 2.87753e+06 2.86308e+06 2.86308e+06 2.84869e+06 2.84869e+06 2.83437e+06 2.83437e+06 2.8201e+06 2.8201e+06 2.8059e+06 2.8059e+06 2.79175e+06 2.79175e+06 2.77767e+06 2.77767e+06 2.76364e+06 2.76364e+06 2.74968e+06 2.74968e+06 2.73577e+06 2.73577e+06 2.72192e+06 2.72192e+06 2.70813e+06 2.70813e+06 2.6944e+06 2.6944e+06 2.68072e+06 2.68072e+06 2.6671e+06 2.6671e+06 2.65354e+06 2.65354e+06 2.64004e+06 2.64004e+06 2.62659e+06 2.62659e+06 2.6132e+06 2.6132e+06 2.59987e+06 2.59987e+06 2.58659e+06 2.58659e+06 2.57337e+06 2.57337e+06 2.5602e+06 2.5602e+06 2.54708e+06 2.54708e+06 2.53402e+06 2.53402e+06 2.52102e+06 2.52102e+06 2.50807e+06 2.50807e+06 2.49517e+06 2.49517e+06 2.48233e+06 2.48233e+06 2.46954e+06 2.46954e+06 2.4568e+06 2.4568e+06 2.44412e+06 2.44412e+06 2.43148e+06 2.43148e+06 2.4189e+06 2.4189e+06 2.40638e+06 2.40638e+06 2.3939e+06 2.3939e+06 2.38147e+06 2.38147e+06 2.3691e+06 2.3691e+06 2.35678e+06 2.35678e+06 2.3445e+06 2.3445e+06 2.33228e+06 2.33228e+06 2.32011e+06 2.32011e+06 2.30799e+06 2.30799e+06 2.29591e+06 2.29591e+06 2.28389e+06 2.28389e+06 2.27192e+06 2.27192e+06 2.25999e+06 2.25999e+06 2.24811e+06 2.24811e+06 2.23629e+06 2.23629e+06 2.22451e+06 2.22451e+06 2.21277e+06 2.21277e+06 2.20109e+06 2.20109e+06 2.18945e+06 2.18945e+06 2.17786e+06 2.17786e+06 2.16632e+06 2.16632e+06 2.15482e+06 2.15482e+06 2.14337e+06 2.14337e+06 2.13197e+06 2.13197e+06 2.12061e+06 2.12061e+06 2.1093e+06 2.1093e+06 2.09803e+06 2.09803e+06 2.08681e+06 2.08681e+06 2.07564e+06 2.07564e+06 2.06451e+06 2.06451e+06 2.05342e+06 2.05342e+06 2.04238e+06 2.04238e+06 2.03138e+06 2.03138e+06 2.02043e+06 2.02043e+06 2.00952e+06 2.00952e+06 1.99865e+06 1.99865e+06 1.98783e+06 1.98783e+06 1.97705e+06 1.97705e+06 1.96631e+06 1.96631e+06 1.95562e+06 1.95562e+06 1.94497e+06 1.94497e+06 1.93436e+06 1.93436e+06 1.9238e+06 1.9238e+06 1.91327e+06 1.91327e+06 1.90279e+06 1.90279e+06 1.89235e+06 1.89235e+06 1.88195e+06 1.88195e+06 1.87159e+06 1.87159e+06 1.86127e+06 1.86127e+06 1.851e+06 1.851e+06 1.84076e+06 1.84076e+06 1.83056e+06 1.83056e+06 1.82041e+06 1.82041e+06 1.81029e+06 1.81029e+06 1.80022e+06 1.80022e+06 1.79018e+06 1.79018e+06 1.78018e+06 1.78018e+06 1.77023e+06 1.77023e+06 1.76031e+06 1.76031e+06 1.75043e+06 1.75043e+06 1.74059e+06 1.74059e+06 1.73078e+06 1.73078e+06 1.72102e+06 1.72102e+06 1.71129e+06 1.71129e+06 1.70161e+06 1.70161e+06 1.69196e+06 1.69196e+06 1.68234e+06 1.68234e+06 1.67277e+06 1.67277e+06 1.66323e+06 1.66323e+06 1.65373e+06 1.65373e+06 1.64426e+06 1.64426e+06 1.63484e+06 1.63484e+06 1.62545e+06 1.62545e+06 1.61609e+06 1.61609e+06 1.60677e+06 1.60677e+06 1.59749e+06 1.59749e+06 1.58824e+06 1.58824e+06 1.57903e+06 1.57903e+06 1.56986e+06 1.56986e+06 1.56072e+06 1.56072e+06 1.55161e+06 1.55161e+06 1.54254e+06 1.54254e+06 1.53351e+06 1.53351e+06 1.52451e+06 1.52451e+06 1.51554e+06 1.51554e+06 1.50661e+06 1.50661e+06 1.49771e+06 1.49771e+06 1.48885e+06 1.48885e+06 1.48002e+06 1.48002e+06 1.47122e+06 1.47122e+06 1.46246e+06 1.46246e+06 1.45373e+06 1.45373e+06 1.44504e+06 1.44504e+06 1.43638e+06 1.43638e+06 1.42775e+06 1.42775e+06 1.41915e+06 1.41915e+06 1.41059e+06 1.41059e+06 1.40206e+06 1.40206e+06 1.39356e+06 1.39356e+06 1.38509e+06 1.38509e+06 1.37666e+06 1.37666e+06 1.36825e+06 1.36825e+06 1.35988e+06 1.35988e+06 1.35154e+06 1.35154e+06 1.34324e+06 1.34324e+06 1.33496e+06 1.33496e+06 1.32672e+06 1.32672e+06 1.3185e+06 1.3185e+06 1.31032e+06 1.31032e+06 1.30217e+06 1.30217e+06 1.29404e+06 1.29404e+06 1.28595e+06 1.28595e+06 1.27789e+06 1.27789e+06 1.26986e+06 1.26986e+06 1.26186e+06 1.26186e+06 1.25389e+06 1.25389e+06 1.24595e+06 1.24595e+06 1.23804e+06 1.23804e+06 1.23016e+06 1.23016e+06 1.2223e+06 1.2223e+06 1.21448e+06 1.21448e+06 1.20669e+06 1.20669e+06 1.19892e+06 1.19892e+06 1.19118e+06 1.19118e+06 1.18348e+06 1.18348e+06 1.1758e+06 1.1758e+06 1.16815e+06 1.16815e+06 1.16053e+06 1.16053e+06 1.15293e+06 1.15293e+06 1.14537e+06 1.14537e+06 1.13783e+06 1.13783e+06 1.13032e+06 1.13032e+06 1.12284e+06 1.12284e+06 1.11538e+06 1.11538e+06 1.10796e+06 1.10796e+06 1.10056e+06 1.10056e+06 1.09319e+06 1.09319e+06 1.08584e+06 1.08584e+06 1.07852e+06 1.07852e+06 1.07123e+06 1.07123e+06 1.06397e+06 1.06397e+06 1.05673e+06 1.05673e+06 1.04952e+06 1.04952e+06 1.04233e+06 1.04233e+06 1.03517e+06 1.03517e+06 1.02804e+06 1.02804e+06 1.02093e+06 1.02093e+06 1.01385e+06 1.01385e+06 1.0068e+06 1.0068e+06 999771 999771 992768 992768 985790 985790 978837 978837 971910 971910 965008 965008 958131 958131 951279 951279 944452 944452 937650 937650 930872 930872 924118 924118 917390 917390 910685 910685 904004 904004 897348 897348 890716 890716 884107 884107 877523 877523 870962 870962 864424 864424 857910 857910 851419 851419 844952 844952 838508 838508 832087 832087 825688 825688 819313 819313 812961 812961 806631 806631 800324 800324 794039 794039 787776 787776 781536 781536 775318 775318 769122 769122 762948 762948 756797 756797 750666 750666 744558 744558 738471 738471 732406 732406 726362 726362 720340 720340 714339 714339 708359 708359 702400 702400 696462 696462 690545 690545 684649 684649 678774 678774 672919 672919 667085 667085 661271 661271 655478 655478 649705 649705 643952 643952 638219 638219 632507 632507 626814 626814 621142 621142 615489 615489 609855 609855 604242 604242 598648 598648 593073 593073 587518 587518 581982 581982 576466 576466 570968 570968 565490 565490 560031 560031 554590 554590 549169 549169 543766 543766 538382 538382 533016 533016 527669 527669 522341 522341 517031 517031 511739 511739 506465 506465 501210 501210 495972 495972 490753 490753 485552 485552 480368 480368 475202 475202 470054 470054 464924 464924 459811 459811 454716 454716 449638 449638 444577 444577 439534 439534 434508 434508 429499 429499 424507 424507 419533 419533 414575 414575 409634 409634 404710 404710 399802 399802 394912 394912 390038 390038 385180 385180 380339 380339 375514 375514 370706 370706 365914 365914 361138 361138 356378 356378 351635 351635 346907 346907 342196 342196 337500 337500 332820 332820 328156 328156 323507 323507 318875 318875 314257 314257 309656 309656 305069 305069 300499 300499 295943 295943 291403 291403 286878 286878 282368 282368 277873 277873 273394 273394 268929 268929 264479 264479 260044 260044 255624 255624 251219 251219 246828 246828 242452 242452 238090 238090 233743 233743 229411 229411 225093 225093 220789 220789 216499 216499 212224 212224 207963 207963 203716 203716 199483 199483 195264 195264 191059 191059 186868 186868 182691 182691 178528 178528 174378 174378 170242 170242 166120 166120 162011 162011 157916 157916 153835 153835 149766 149766 145712 145712 141670 141670 137642 137642 133627 133627 129625 129625 125636 125636 121661 121661 117698 117698 113749 113749 109812 