# vtk DataFile Version 3.0
#This file was generated by the deal.II library on 2020/9/6 at 3:44:01
ASCII
DATASET UNSTRUCTURED_GRID

POINTS 4096 double
1.5 0 0
1.5481 0 0
1.5481 0 0
1.59619 0 0
1.59619 0 0
1.64429 0 0
1.64429 0 0
1.69238 0 0
1.69238 0 0
1.74048 0 0
1.74048 0 0
1.78857 0 0
1.78857 0 0
1.83667 0 0
1.83667 0 0
1.88477 0 0
1.88477 0 0
1.93286 0 0
1.93286 0 0
1.98096 0 0
1.98096 0 0
2.02905 0 0
2.02905 0 0
2.07715 0 0
2.07715 0 0
2.12524 0 0
2.12524 0 0
2.17334 0 0
2.17334 0 0
2.22144 0 0
2.22144 0 0
2.26953 0 0
2.26953 0 0
2.31763 0 0
2.31763 0 0
2.36572 0 0
2.36572 0 0
2.41382 0 0
2.41382 0 0
2.46191 0 0
2.46191 0 0
2.51001 0 0
2.51001 0 0
2.55811 0 0
2.55811 0 0
2.6062 0 0
2.6062 0 0
2.6543 0 0
2.6543 0 0
2.70239 0 0
2.70239 0 0
2.75049 0 0
2.75049 0 0
2.79858 0 0
2.79858 0 0
2.84668 0 0
2.84668 0 0
2.89478 0 0
2.89478 0 0
2.94287 0 0
2.94287 0 0
2.99097 0 0
2.99097 0 0
3.03906 0 0
3.03906 0 0
3.08716 0 0
3.08716 0 0
3.13525 0 0
3.13525 0 0
3.18335 0 0
3.18335 0 0
3.23145 0 0
3.23145 0 0
3.27954 0 0
3.27954 0 0
3.32764 0 0
3.32764 0 0
3.37573 0 0
3.37573 0 0
3.42383 0 0
3.42383 0 0
3.47192 0 0
3.47192 0 0
3.52002 0 0
3.52002 0 0
3.56812 0 0
3.56812 0 0
3.61621 0 0
3.61621 0 0
3.66431 0 0
3.66431 0 0
3.7124 0 0
3.7124 0 0
3.7605 0 0
3.7605 0 0
3.80859 0 0
3.80859 0 0
3.85669 0 0
3.85669 0 0
3.90479 0 0
3.90479 0 0
3.95288 0 0
3.95288 0 0
4.00098 0 0
4.00098 0 0
4.04907 0 0
4.04907 0 0
4.09717 0 0
4.09717 0 0
4.14526 0 0
4.14526 0 0
4.19336 0 0
4.19336 0 0
4.24146 0 0
4.24146 0 0
4.28955 0 0
4.28955 0 0
4.33765 0 0
4.33765 0 0
4.38574 0 0
4.38574 0 0
4.43384 0 0
4.43384 0 0
4.48193 0 0
4.48193 0 0
4.53003 0 0
4.53003 0 0
4.57812 0 0
4.57812 0 0
4.62622 0 0
4.62622 0 0
4.67432 0 0
4.67432 0 0
4.72241 0 0
4.72241 0 0
4.77051 0 0
4.77051 0 0
4.8186 0 0
4.8186 0 0
4.8667 0 0
4.8667 0 0
4.91479 0 0
4.91479 0 0
4.96289 0 0
4.96289 0 0
5.01099 0 0
5.01099 0 0
5.05908 0 0
5.05908 0 0
5.10718 0 0
5.10718 0 0
5.15527 0 0
5.15527 0 0
5.20337 0 0
5.20337 0 0
5.25146 0 0
5.25146 0 0
5.29956 0 0
5.29956 0 0
5.34766 0 0
5.34766 0 0
5.39575 0 0
5.39575 0 0
5.44385 0 0
5.44385 0 0
5.49194 0 0
5.49194 0 0
5.54004 0 0
5.54004 0 0
5.58813 0 0
5.58813 0 0
5.63623 0 0
5.63623 0 0
5.68433 0 0
5.68433 0 0
5.73242 0 0
5.73242 0 0
5.78052 0 0
5.78052 0 0
5.82861 0 0
5.82861 0 0
5.87671 0 0
5.87671 0 0
5.9248 0 0
5.9248 0 0
5.9729 0 0
5.9729 0 0
6.021 0 0
6.021 0 0
6.06909 0 0
6.06909 0 0
6.11719 0 0
6.11719 0 0
6.16528 0 0
6.16528 0 0
6.21338 0 0
6.21338 0 0
6.26147 0 0
6.26147 0 0
6.30957 0 0
6.30957 0 0
6.35767 0 0
6.35767 0 0
6.40576 0 0
6.40576 0 0
6.45386 0 0
6.45386 0 0
6.50195 0 0
6.50195 0 0
6.55005 0 0
6.55005 0 0
6.59814 0 0
6.59814 0 0
6.64624 0 0
6.64624 0 0
6.69434 0 0
6.69434 0 0
6.74243 0 0
6.74243 0 0
6.79053 0 0
6.79053 0 0
6.83862 0 0
6.83862 0 0
6.88672 0 0
6.88672 0 0
6.93481 0 0
6.93481 0 0
6.98291 0 0
6.98291 0 0
7.03101 0 0
7.03101 0 0
7.0791 0 0
7.0791 0 0
7.1272 0 0
7.1272 0 0
7.17529 0 0
7.17529 0 0
7.22339 0 0
7.22339 0 0
7.27148 0 0
7.27148 0 0
7.31958 0 0
7.31958 0 0
7.36768 0 0
7.36768 0 0
7.41577 0 0
7.41577 0 0
7.46387 0 0
7.46387 0 0
7.51196 0 0
7.51196 0 0
7.56006 0 0
7.56006 0 0
7.60815 0 0
7.60815 0 0
7.65625 0 0
7.65625 0 0
7.70435 0 0
7.70435 0 0
7.75244 0 0
7.75244 0 0
7.80054 0 0
7.80054 0 0
7.84863 0 0
7.84863 0 0
7.89673 0 0
7.89673 0 0
7.94482 0 0
7.94482 0 0
7.99292 0 0
7.99292 0 0
8.04102 0 0
8.04102 0 0
8.08911 0 0
8.08911 0 0
8.13721 0 0
8.13721 0 0
8.1853 0 0
8.1853 0 0
8.2334 0 0
8.2334 0 0
8.28149 0 0
8.28149 0 0
8.32959 0 0
8.32959 0 0
8.37769 0 0
8.37769 0 0
8.42578 0 0
8.42578 0 0
8.47388 0 0
8.47388 0 0
8.52197 0 0
8.52197 0 0
8.57007 0 0
8.57007 0 0
8.61816 0 0
8.61816 0 0
8.66626 0 0
8.66626 0 0
8.71436 0 0
8.71436 0 0
8.76245 0 0
8.76245 0 0
8.81055 0 0
8.81055 0 0
8.85864 0 0
8.85864 0 0
8.90674 0 0
8.90674 0 0
8.95483 0 0
8.95483 0 0
9.00293 0 0
9.00293 0 0
9.05103 0 0
9.05103 0 0
9.09912 0 0
9.09912 0 0
9.14722 0 0
9.14722 0 0
9.19531 0 0
9.19531 0 0
9.24341 0 0
9.24341 0 0
9.2915 0 0
9.2915 0 0
9.3396 0 0
9.3396 0 0
9.3877 0 0
9.3877 0 0
9.43579 0 0
9.43579 0 0
9.48389 0 0
9.48389 0 0
9.53198 0 0
9.53198 0 0
9.58008 0 0
9.58008 0 0
9.62817 0 0
9.62817 0 0
9.67627 0 0
9.67627 0 0
9.72437 0 0
9.72437 0 0
9.77246 0 0
9.77246 0 0
9.82056 0 0
9.82056 0 0
9.86865 0 0
9.86865 0 0
9.91675 0 0
9.91675 0 0
9.96484 0 0
9.96484 0 0
10.0129 0 0
10.0129 0 0
10.061 0 0
10.061 0 0
10.1091 0 0
10.1091 0 0
10.1572 0 0
10.1572 0 0
10.2053 0 0
10.2053 0 0
10.2534 0 0
10.2534 0 0
10.3015 0 0
10.3015 0 0
10.3496 0 0
10.3496 0 0
10.3977 0 0
10.3977 0 0
10.4458 0 0
10.4458 0 0
10.4939 0 0
10.4939 0 0
10.542 0 0
10.542 0 0
10.5901 0 0
10.5901 0 0
10.6382 0 0
10.6382 0 0
10.6863 0 0
10.6863 0 0
10.7344 0 0
10.7344 0 0
10.7825 0 0
10.7825 0 0
10.8306 0 0
10.8306 0 0
10.8787 0 0
10.8787 0 0
10.9268 0 0
10.9268 0 0
10.9749 0 0
10.9749 0 0
11.0229 0 0
11.0229 0 0
11.071 0 0
11.071 0 0
11.1191 0 0
11.1191 0 0
11.1672 0 0
11.1672 0 0
11.2153 0 0
11.2153 0 0
11.2634 0 0
11.2634 0 0
11.3115 0 0
11.3115 0 0
11.3596 0 0
11.3596 0 0
11.4077 0 0
11.4077 0 0
11.4558 0 0
11.4558 0 0
11.5039 0 0
11.5039 0 0
11.552 0 0
11.552 0 0
11.6001 0 0
11.6001 0 0
11.6482 0 0
11.6482 0 0
11.6963 0 0
11.6963 0 0
11.7444 0 0
11.7444 0 0
11.7925 0 0
11.7925 0 0
11.8406 0 0
11.8406 0 0
11.8887 0 0
11.8887 0 0
11.9368 0 0
11.9368 0 0
11.9849 0 0
11.9849 0 0
12.033 0 0
12.033 0 0
12.0811 0 0
12.0811 0 0
12.1292 0 0
12.1292 0 0
12.1772 0 0
12.1772 0 0
12.2253 0 0
12.2253 0 0
12.2734 0 0
12.2734 0 0
12.3215 0 0
12.3215 0 0
12.3696 0 0
12.3696 0 0
12.4177 0 0
12.4177 0 0
12.4658 0 0
12.4658 0 0
12.5139 0 0
12.5139 0 0
12.562 0 0
12.562 0 0
12.6101 0 0
12.6101 0 0
12.6582 0 0
12.6582 0 0
12.7063 0 0
12.7063 0 0
12.7544 0 0
12.7544 0 0
12.8025 0 0
12.8025 0 0
12.8506 0 0
12.8506 0 0
12.8987 0 0
12.8987 0 0
12.9468 0 0
12.9468 0 0
12.9949 0 0
12.9949 0 0
13.043 0 0
13.043 0 0
13.0911 0 0
13.0911 0 0
13.1392 0 0
13.1392 0 0
13.1873 0 0
13.1873 0 0
13.2354 0 0
13.2354 0 0
13.2834 0 0
13.2834 0 0
13.3315 0 0
13.3315 0 0
13.3796 0 0
13.3796 0 0
13.4277 0 0
13.4277 0 0
13.4758 0 0
13.4758 0 0
13.5239 0 0
13.5239 0 0
13.572 0 0
13.572 0 0
13.6201 0 0
13.6201 0 0
13.6682 0 0
13.6682 0 0
13.7163 0 0
13.7163 0 0
13.7644 0 0
13.7644 0 0
13.8125 0 0
13.8125 0 0
13.8606 0 0
13.8606 0 0
13.9087 0 0
13.9087 0 0
13.9568 0 0
13.9568 0 0
14.0049 0 0
14.0049 0 0
14.053 0 0
14.053 0 0
14.1011 0 0
14.1011 0 0
14.1492 0 0
14.1492 0 0
14.1973 0 0
14.1973 0 0
14.2454 0 0
14.2454 0 0
14.2935 0 0
14.2935 0 0
14.3416 0 0
14.3416 0 0
14.3896 0 0
14.3896 0 0
14.4377 0 0
14.4377 0 0
14.4858 0 0
14.4858 0 0
14.5339 0 0
14.5339 0 0
14.582 0 0
14.582 0 0
14.6301 0 0
14.6301 0 0
14.6782 0 0
14.6782 0 0
14.7263 0 0
14.7263 0 0
14.7744 0 0
14.7744 0 0
14.8225 0 0
14.8225 0 0
14.8706 0 0
14.8706 0 0
14.9187 0 0
14.9187 0 0
14.9668 0 0
14.9668 0 0
15.0149 0 0
15.0149 0 0
15.063 0 0
15.063 0 0
15.1111 0 0
15.1111 0 0
15.1592 0 0
15.1592 0 0
15.2073 0 0
15.2073 0 0
15.2554 0 0
15.2554 0 0
15.3035 0 0
15.3035 0 0
15.3516 0 0
15.3516 0 0
15.3997 0 0
15.3997 0 0
15.4478 0 0
15.4478 0 0
15.4958 0 0
15.4958 0 0
15.5439 0 0
15.5439 0 0
15.592 0 0
15.592 0 0
15.6401 0 0
15.6401 0 0
15.6882 0 0
15.6882 0 0
15.7363 0 0
15.7363 0 0
15.7844 0 0
15.7844 0 0
15.8325 0 0
15.8325 0 0
15.8806 0 0
15.8806 0 0
15.9287 0 0
15.9287 0 0
15.9768 0 0
15.9768 0 0
16.0249 0 0
16.0249 0 0
16.073 0 0
16.073 0 0
16.1211 0 0
16.1211 0 0
16.1692 0 0
16.1692 0 0
16.2173 0 0
16.2173 0 0
16.2654 0 0
16.2654 0 0
16.3135 0 0
16.3135 0 0
16.3616 0 0
16.3616 0 0
16.4097 0 0
16.4097 0 0
16.4578 0 0
16.4578 0 0
16.5059 0 0
16.5059 0 0
16.554 0 0
16.554 0 0
16.6021 0 0
16.6021 0 0
16.6501 0 0
16.6501 0 0
16.6982 0 0
16.6982 0 0
16.7463 0 0
16.7463 0 0
16.7944 0 0
16.7944 0 0
16.8425 0 0
16.8425 0 0
16.8906 0 0
16.8906 0 0
16.9387 0 0
16.9387 0 0
16.9868 0 0
16.9868 0 0
17.0349 0 0
17.0349 0 0
17.083 0 0
17.083 0 0
17.1311 0 0
17.1311 0 0
17.1792 0 0
17.1792 0 0
17.2273 0 0
17.2273 0 0
17.2754 0 0
17.2754 0 0
17.3235 0 0
17.3235 0 0
17.3716 0 0
17.3716 0 0
17.4197 0 0
17.4197 0 0
17.4678 0 0
17.4678 0 0
17.5159 0 0
17.5159 0 0
17.564 0 0
17.564 0 0
17.6121 0 0
17.6121 0 0
17.6602 0 0
17.6602 0 0
17.7083 0 0
17.7083 0 0
17.7563 0 0
17.7563 0 0
17.8044 0 0
17.8044 0 0
17.8525 0 0
17.8525 0 0
17.9006 0 0
17.9006 0 0
17.9487 0 0
17.9487 0 0
17.9968 0 0
17.9968 0 0
18.0449 0 0
18.0449 0 0
18.093 0 0
18.093 0 0
18.1411 0 0
18.1411 0 0
18.1892 0 0
18.1892 0 0
18.2373 0 0
18.2373 0 0
18.2854 0 0
18.2854 0 0
18.3335 0 0
18.3335 0 0
18.3816 0 0
18.3816 0 0
18.4297 0 0
18.4297 0 0
18.4778 0 0
18.4778 0 0
18.5259 0 0
18.5259 0 0
18.574 0 0
18.574 0 0
18.6221 0 0
18.6221 0 0
18.6702 0 0
18.6702 0 0
18.7183 0 0
18.7183 0 0
18.7664 0 0
18.7664 0 0
18.8145 0 0
18.8145 0 0
18.8625 0 0
18.8625 0 0
18.9106 0 0
18.9106 0 0
18.9587 0 0
18.9587 0 0
19.0068 0 0
19.0068 0 0
19.0549 0 0
19.0549 0 0
19.103 0 0
19.103 0 0
19.1511 0 0
19.1511 0 0
19.1992 0 0
19.1992 0 0
19.2473 0 0
19.2473 0 0
19.2954 0 0
19.2954 0 0
19.3435 0 0
19.3435 0 0
19.3916 0 0
19.3916 0 0
19.4397 0 0
19.4397 0 0
19.4878 0 0
19.4878 0 0
19.5359 0 0
19.5359 0 0
19.584 0 0
19.584 0 0
19.6321 0 0
19.6321 0 0
19.6802 0 0
19.6802 0 0
19.7283 0 0
19.7283 0 0
19.7764 0 0
19.7764 0 0
19.8245 0 0
19.8245 0 0
19.8726 0 0
19.8726 0 0
19.9207 0 0
19.9207 0 0
19.9688 0 0
19.9688 0 0
20.0168 0 0
20.0168 0 0
20.0649 0 0
20.0649 0 0
20.113 0 0
20.113 0 0
20.1611 0 0
20.1611 0 0
20.2092 0 0
20.2092 0 0
20.2573 0 0
20.2573 0 0
20.3054 0 0
20.3054 0 0
20.3535 0 0
20.3535 0 0
20.4016 0 0
20.4016 0 0
20.4497 0 0
20.4497 0 0
20.4978 0 0
20.4978 0 0
20.5459 0 0
20.5459 0 0
20.594 0 0
20.594 0 0
20.6421 0 0
20.6421 0 0
20.6902 0 0
20.6902 0 0
20.7383 0 0
20.7383 0 0
20.7864 0 0
20.7864 0 0
20.8345 0 0
20.8345 0 0
20.8826 0 0
20.8826 0 0
20.9307 0 0
20.9307 0 0
20.9788 0 0
20.9788 0 0
21.0269 0 0
21.0269 0 0
21.075 0 0
21.075 0 0
21.123 0 0
21.123 0 0
21.1711 0 0
21.1711 0 0
21.2192 0 0
21.2192 0 0
21.2673 0 0
21.2673 0 0
21.3154 0 0
21.3154 0 0
21.3635 0 0
21.3635 0 0
21.4116 0 0
[...]
POINT_DATA 4096
SCALARS solution_0 double 1
LOOKUP_TABLE default
2.88303e+09 2.82729e+09 2.82729e+09 2.77561e+09 2.77561e+09 2.72754e+09 2.72754e+09 2.68272e+09 2.68272e+09 2.64084e+09 2.64084e+09 2.60159e+09 2.60159e+09 2.56473e+09 2.56473e+09 2.53004e+09 2.53004e+09 2.49731e+09 2.49731e+09 2.46638e+09 2.46638e+09 2.43707e+09 2.43707e+09 2.40926e+09 2.40926e+09 2.38281e+09 2.38281e+09 2.35761e+09 2.35761e+09 2.33356e+09 2.33356e+09 2.31057e+09 2.31057e+09 2.28855e+09 2.28855e+09 2.26743e+09 2.26743e+09 2.24714e+09 2.24714e+09 2.22761e+09 2.22761e+09 2.20879e+09 2.20879e+09 2.19063e+09 2.19063e+09 2.17309e+09 2.17309e+09 2.15611e+09 2.15611e+09 2.13966e+09 2.13966e+09 2.1237e+09 2.1237e+09 2.10821e+09 2.10821e+09 2.09314e+09 2.09314e+09 2.07848e+09 2.07848e+09 2.06419e+09 2.06419e+09 2.05025e+09 2.05025e+09 2.03665e+09 2.03665e+09 2.02335e+09 2.02335e+09 2.01035e+09 2.01035e+09 1.99762e+09 1.99762e+09 1.98515e+09 1.98515e+09 1.97292e+09 1.97292e+09 1.96092e+09 1.96092e+09 1.94914e+09 1.94914e+09 1.93756e+09 1.93756e+09 1.92618e+09 1.92618e+09 1.91498e+09 1.91498e+09 1.90396e+09 1.90396e+09 1.8931e+09 1.8931e+09 1.88239e+09 1.88239e+09 1.87184e+09 1.87184e+09 1.86143e+09 1.86143e+09 1.85115e+09 1.85115e+09 1.841e+09 1.841e+09 1.83098e+09 1.83098e+09 1.82107e+09 1.82107e+09 1.81128e+09 1.81128e+09 1.80159e+09 1.80159e+09 1.79201e+09 1.79201e+09 1.78252e+09 1.78252e+09 1.77313e+09 1.77313e+09 1.76383e+09 1.76383e+09 1.75462e+09 1.75462e+09 1.74549e+09 1.74549e+09 1.73644e+09 1.73644e+09 1.72747e+09 1.72747e+09 1.71858e+09 1.71858e+09 1.70976e+09 1.70976e+09 1.70101e+09 1.70101e+09 1.69232e+09 1.69232e+09 1.68371e+09 1.68371e+09 1.67516e+09 1.67516e+09 1.66667e+09 1.66667e+09 1.65824e+09 1.65824e+09 1.64987e+09 1.64987e+09 1.64155e+09 1.64155e+09 1.63329e+09 1.63329e+09 1.62509e+09 1.62509e+09 1.61694e+09 1.61694e+09 1.60884e+09 1.60884e+09 1.60079e+09 1.60079e+09 1.59279e+09 1.59279e+09 1.58484e+09 1.58484e+09 1.57694e+09 1.57694e+09 1.56908e+09 1.56908e+09 1.56127e+09 1.56127e+09 1.5535e+09 1.5535e+09 1.54577e+09 1.54577e+09 1.53809e+09 1.53809e+09 1.53045e+09 1.53045e+09 1.52286e+09 1.52286e+09 1.5153e+09 1.5153e+09 1.50779e+09 1.50779e+09 1.50031e+09 1.50031e+09 1.49287e+09 1.49287e+09 1.48548e+09 1.48548e+09 1.47812e+09 1.47812e+09 1.47079e+09 1.47079e+09 1.46351e+09 1.46351e+09 1.45626e+09 1.45626e+09 1.44905e+09 1.44905e+09 1.44187e+09 1.44187e+09 1.43473e+09 1.43473e+09 1.42763e+09 1.42763e+09 1.42056e+09 1.42056e+09 1.41353e+09 1.41353e+09 1.40652e+09 1.40652e+09 1.39956e+09 1.39956e+09 1.39263e+09 1.39263e+09 1.38573e+09 1.38573e+09 1.37886e+09 1.37886e+09 1.37203e+09 1.37203e+09 1.36523e+09 1.36523e+09 1.35846e+09 1.35846e+09 1.35173e+09 1.35173e+09 1.34502e+09 1.34502e+09 1.33835e+09 1.33835e+09 1.33171e+09 1.33171e+09 1.3251e+09 1.3251e+09 1.31853e+09 1.31853e+09 1.31198e+09 1.31198e+09 1.30547e+09 1.30547e+09 1.29898e+09 1.29898e+09 1.29253e+09 1.29253e+09 1.28611e+09 1.28611e+09 1.27972e+09 1.27972e+09 1.27336e+09 1.27336e+09 1.26702e+09 1.26702e+09 1.26072e+09 1.26072e+09 1.25445e+09 1.25445e+09 1.24821e+09 1.24821e+09 1.242e+09 1.242e+09 1.23581e+09 1.23581e+09 1.22966e+09 1.22966e+09 1.22353e+09 1.22353e+09 1.21744e+09 1.21744e+09 1.21137e+09 1.21137e+09 1.20533e+09 1.20533e+09 1.19932e+09 1.19932e+09 1.19334e+09 1.19334e+09 1.18739e+09 1.18739e+09 1.18147e+09 1.18147e+09 1.17557e+09 1.17557e+09 1.1697e+09 1.1697e+09 1.16386e+09 1.16386e+09 1.15805e+09 1.15805e+09 1.15227e+09 1.15227e+09 1.14651e+09 1.14651e+09 1.14079e+09 1.14079e+09 1.13508e+09 1.13508e+09 1.12941e+09 1.12941e+09 1.12377e+09 1.12377e+09 1.11815e+09 1.11815e+09 1.11256e+09 1.11256e+09 1.10699e+09 1.10699e+09 1.10145e+09 1.10145e+09 1.09594e+09 1.09594e+09 1.09046e+09 1.09046e+09 1.085e+09 1.085e+09 1.07957e+09 1.07957e+09 1.07417e+09 1.07417e+09 1.06879e+09 1.06879e+09 1.06344e+09 1.06344e+09 1.05811e+09 1.05811e+09 1.05281e+09 1.05281e+09 1.04754e+09 1.04754e+09 1.04229e+09 1.04229e+09 1.03707e+09 1.03707e+09 1.03187e+09 1.03187e+09 1.0267e+09 1.0267e+09 1.02156e+09 1.02156e+09 1.01644e+09 1.01644e+09 1.01134e+09 1.01134e+09 1.00627e+09 1.00627e+09 1.00123e+09 1.00123e+09 9.96211e+08 9.96211e+08 9.91217e+08 9.91217e+08 9.86247e+08 9.86247e+08 9.81303e+08 9.81303e+08 9.76383e+08 9.76383e+08 9.71488e+08 9.71488e+08 9.66617e+08 9.66617e+08 9.6177e+08 9.6177e+08 9.56948e+08 9.56948e+08 9.5215e+08 9.5215e+08 9.47376e+08 9.47376e+08 9.42625e+08 9.42625e+08 9.37899e+08 9.37899e+08 9.33197e+08 9.33197e+08 9.28518e+08 9.28518e+08 9.23863e+08 9.23863e+08 9.19231e+08 9.19231e+08 9.14623e+08 9.14623e+08 9.10038e+08 9.10038e+08 9.05476e+08 9.05476e+08 9.00937e+08 9.00937e+08 8.96421e+08 8.96421e+08 8.91928e+08 8.91928e+08 8.87458e+08 8.87458e+08 8.83011e+08 8.83011e+08 8.78586e+08 8.78586e+08 8.74184e+08 8.74184e+08 8.69804e+08 8.69804e+08 8.65447e+08 8.65447e+08 8.61112e+08 8.61112e+08 8.56798e+08 8.56798e+08 8.52507e+08 8.52507e+08 8.48238e+08 8.48238e+08 8.43991e+08 8.43991e+08 8.39765e+08 8.39765e+08 8.35562e+08 8.35562e+08 8.31379e+08 8.31379e+08 8.27218e+08 8.27218e+08 8.23079e+08 8.23079e+08 8.18961e+08 8.18961e+08 8.14863e+08 8.14863e+08 8.10787e+08 8.10787e+08 8.06732e+08 8.06732e+08 8.02698e+08 8.02698e+08 7.98685e+08 7.98685e+08 7.94692e+08 7.94692e+08 7.9072e+08 7.9072e+08 7.86768e+08 7.86768e+08 7.82837e+08 7.82837e+08 7.78926e+08 7.78926e+08 7.75035e+08 7.75035e+08 7.71165e+08 7.71165e+08 7.67314e+08 7.67314e+08 7.63483e+08 7.63483e+08 7.59672e+08 7.59672e+08 7.55881e+08 7.55881e+08 7.5211e+08 7.5211e+08 7.48358e+08 7.48358e+08 7.44625e+08 7.44625e+08 7.40912e+08 7.40912e+08 7.37218e+08 7.37218e+08 7.33543e+08 7.33543e+08 7.29888e+08 7.29888e+08 7.26251e+08 7.26251e+08 7.22633e+08 7.22633e+08 7.19034e+08 7.19034e+08 7.15454e+08 7.15454e+08 7.11892e+08 7.11892e+08 7.08349e+08 7.08349e+08 7.04825e+08 7.04825e+08 7.01318e+08 7.01318e+08 6.9783e+08 6.9783e+08 6.9436e+08 6.9436e+08 6.90908e+08 6.90908e+08 6.87474e+08 6.87474e+08 6.84058e+08 6.84058e+08 6.8066e+08 6.8066e+08 6.77279e+08 6.77279e+08 6.73916e+08 6.73916e+08 6.7057e+08 6.7057e+08 6.67242e+08 6.67242e+08 6.63932e+08 6.63932e+08 6.60638e+08 6.60638e+08 6.57362e+08 6.57362e+08 6.54103e+08 6.54103e+08 6.5086e+08 6.5086e+08 6.47635e+08 6.47635e+08 6.44426e+08 6.44426e+08 6.41234e+08 6.41234e+08 6.38059e+08 6.38059e+08 6.34901e+08 6.34901e+08 6.31758e+08 6.31758e+08 6.28633e+08 6.28633e+08 6.25523e+08 6.25523e+08 6.2243e+08 6.2243e+08 6.19353e+08 6.19353e+08 6.16291e+08 6.16291e+08 6.13246e+08 6.13246e+08 6.10217e+08 6.10217e+08 6.07203e+08 6.07203e+08 6.04205e+08 6.04205e+08 6.01223e+08 6.01223e+08 5.98256e+08 5.98256e+08 5.95305e+08 5.95305e+08 5.92369e+08 5.92369e+08 5.89449e+08 5.89449e+08 5.86543e+08 5.86543e+08 5.83653e+08 5.83653e+08 5.80778e+08 5.80778e+08 5.77917e+08 5.77917e+08 5.75072e+08 5.75072e+08 5.72241e+08 5.72241e+08 5.69425e+08 5.69425e+08 5.66624e+08 5.66624e+08 5.63837e+08 5.63837e+08 5.61065e+08 5.61065e+08 5.58307e+08 5.58307e+08 5.55564e+08 5.55564e+08 5.52834e+08 5.52834e+08 5.50119e+08 5.50119e+08 5.47418e+08 5.47418e+08 5.44731e+08 5.44731e+08 5.42058e+08 5.42058e+08 5.39399e+08 5.39399e+08 5.36754e+08 5.36754e+08 5.34122e+08 5.34122e+08 5.31504e+08 5.31504e+08 5.289e+08 5.289e+08 5.26309e+08 5.26309e+08 5.23731e+08 5.23731e+08 5.21167e+08 5.21167e+08 5.18616e+08 5.18616e+08 5.16078e+08 5.16078e+08 5.13553e+08 5.13553e+08 5.11042e+08 5.11042e+08 5.08543e+08 5.08543e+08 5.06057e+08 5.06057e+08 5.03584e+08 5.03584e+08 5.01124e+08 5.01124e+08 4.98677e+08 4.98677e+08 4.96242e+08 4.96242e+08 4.93819e+08 4.93819e+08 4.9141e+08 4.9141e+08 4.89012e+08 4.89012e+08 4.86627e+08 4.86627e+08 4.84254e+08 4.84254e+08 4.81894e+08 4.81894e+08 4.79545e+08 4.79545e+08 4.77209e+08 4.77209e+08 4.74884e+08 4.74884e+08 4.72572e+08 4.72572e+08 4.70271e+08 4.70271e+08 4.67982e+08 4.67982e+08 4.65705e+08 4.65705e+08 4.6344e+08 4.6344e+08 4.61186e+08 4.61186e+08 4.58944e+08 4.58944e+08 4.56713e+08 4.56713e+08 4.54494e+08 4.54494e+08 4.52286e+08 4.52286e+08 4.50089e+08 4.50089e+08 4.47903e+08 4.47903e+08 4.45729e+08 4.45729e+08 4.43566e+08 4.43566e+08 4.41413e+08 4.41413e+08 4.39272e+08 4.39272e+08 4.37142e+08 4.37142e+08 4.35022e+08 4.35022e+08 4.32913e+08 4.32913e+08 4.30815e+08 4.30815e+08 4.28728e+08 4.28728e+08 4.26651e+08 4.26651e+08 4.24585e+08 4.24585e+08 4.22529e+08 4.22529e+08 4.20484e+08 4.20484e+08 4.18449e+08 4.18449e+08 4.16424e+08 4.16424e+08 4.1441e+08 4.1441e+08 4.12405e+08 4.12405e+08 4.10411e+08 4.10411e+08 4.08427e+08 4.08427e+08 4.06453e+08 4.06453e+08 4.04489e+08 4.04489e+08 4.02535e+08 4.02535e+08 4.00591e+08 4.00591e+08 3.98656e+08 3.98656e+08 3.96731e+08 3.96731e+08 3.94816e+08 3.94816e+08 3.92911e+08 3.92911e+08 3.91015e+08 3.91015e+08 3.89128e+08 3.89128e+08 3.87251e+08 3.87251e+08 3.85384e+08 3.85384e+08 3.83526e+08 3.83526e+08 3.81677e+08 3.81677e+08 3.79837e+08 3.79837e+08 3.78007e+08 3.78007e+08 3.76186e+08 3.76186e+08 3.74373e+08 3.74373e+08 3.7257e+08 3.7257e+08 3.70776e+08 3.70776e+08 3.68991e+08 3.68991e+08 3.67215e+08 3.67215e+08 3.65447e+08 3.65447e+08 3.63689e+08 3.63689e+08 3.61939e+08 3.61939e+08 3.60197e+08 3.60197e+08 3.58465e+08 3.58465e+08 3.56741e+08 3.56741e+08 3.55025e+08 3.55025e+08 3.53318e+08 3.53318e+08 3.5162e+08 3.5162e+08 3.4993e+08 3.4993e+08 3.48248e+08 3.48248e+08 3.46574e+08 3.46574e+08 3.44909e+08 3.44909e+08 3.43252e+08 3.43252e+08 3.41603e+08 3.41603e+08 3.39963e+08 3.39963e+08 3.3833e+08 3.3833e+08 3.36705e+08 3.36705e+08 3.35089e+08 3.35089e+08 3.3348e+08 3.3348e+08 3.31879e+08 3.31879e+08 3.30286e+08 3.30286e+08 3.28701e+08 3.28701e+08 3.27124e+08 3.27124e+08 3.25554e+08 3.25554e+08 3.23992e+08 3.23992e+08 3.22438e+08 3.22438e+08 3.20891e+08 3.20891e+08 3.19351e+08 3.19351e+08 3.1782e+08 3.1782e+08 3.16295e+08 3.16295e+08 3.14778e+08 3.14778e+08 3.13269e+08 3.13269e+08 3.11767e+08 3.11767e+08 3.10272e+08 3.10272e+08 3.08784e+08 3.08784e+08 3.07304e+08 3.07304e+08 3.0583e+08 3.0583e+08 3.04364e+08 3.04364e+08 3.02905e+08 3.02905e+08 3.01453e+08 3.01453e+08 3.00008e+08 3.00008e+08 2.9857e+08 2.9857e+08 2.97139e+08 2.97139e+08 2.95715e+08 2.95715e+08 2.94297e+08 2.94297e+08 2.92887e+08 2.92887e+08 2.91483e+08 2.91483e+08 2.90086e+08 2.90086e+08 2.88695e+08 2.88695e+08 2.87312e+08 2.87312e+08 2.85935e+08 2.85935e+08 2.84564e+08 2.84564e+08 2.832e+08 2.832e+08 2.81843e+08 2.81843e+08 2.80492e+08 2.80492e+08 2.79147e+08 2.79147e+08 2.77809e+08 2.77809e+08 2.76477e+08 2.76477e+08 2.75152e+08 2.75152e+08 2.73833e+08 2.73833e+08 2.7252e+08 2.7252e+08 2.71213e+08 2.71213e+08 2.69913e+08 2.69913e+08 2.68619e+08 2.68619e+08 2.6733e+08 2.6733e+08 2.66048e+08 2.66048e+08 2.64772e+08 2.64772e+08 2.63502e+08 2.63502e+08 2.62238e+08 2.62238e+08 2.6098e+08 2.6098e+08 2.59728e+08 2.59728e+08 2.58482e+08 2.58482e+08 2.57241e+08 2.57241e+08 2.56007e+08 2.56007e+08 2.54778e+08 2.54778e+08 2.53555e+08 2.53555e+08 2.52338e+08 2.52338e+08 2.51126e+08 2.51126e+08 2.4992e+08 2.4992e+08 2.4872e+08 2.4872e+08 2.47525e+08 2.47525e+08 2.46336e+08 2.46336e+08 2.45152e+08 2.45152e+08 2.43974e+08 2.43974e+08 2.42802e+08 2.42802e+08 2.41634e+08 2.41634e+08 2.40473e+08 2.40473e+08 2.39316e+08 2.39316e+08 2.38165e+08 2.38165e+08 2.3702e+08 2.3702e+08 2.35879e+08 2.35879e+08 2.34744e+08 2.34744e+08 2.33614e+08 2.33614e+08 2.3249e+08 2.3249e+08 2.3137e+08 2.3137e+08 2.30256e+08 2.30256e+08 2.29147e+08 2.29147e+08 2.28043e+08 2.28043e+08 2.26944e+08 2.26944e+08 2.2585e+08 2.2585e+08 2.24761e+08 2.24761e+08 2.23677e+08 2.23677e+08 2.22598e+08 2.22598e+08 2.21524e+08 2.21524e+08 2.20454e+08 2.20454e+08 2.1939e+08 2.1939e+08 2.18331e+08 2.18331e+08 2.17276e+08 2.17276e+08 2.16226e+08 2.16226e+08 2.15181e+08 2.15181e+08 2.14141e+08 2.14141e+08 2.13105e+08 2.13105e+08 2.12075e+08 2.12075e+08 2.11048e+08 2.11048e+08 2.10027e+08 2.10027e+08 2.0901e+08 2.0901e+08 2.07998e+08 2.07998e+08 2.0699e+08 2.0699e+08 2.05987e+08 2.05987e+08 2.04988e+08 2.04988e+08 2.03994e+08 2.03994e+08 2.03004e+08 2.03004e+08 2.02019e+08 2.02019e+08 2.01038e+08 2.01038e+08 2.00061e+08 2.00061e+08 1.99089e+08 1.99089e+08 1.98122e+08 1.98122e+08 1.97158e+08 1.97158e+08 1.96199e+08 1.96199e+08 1.95244e+08 1.95244e+08 1.94294e+08 1.94294e+08 1.93347e+08 1.93347e+08 1.92405e+08 1.92405e+08 1.91467e+08 1.91467e+08 1.90534e+08 1.90534e+08 1.89604e+08 1.89604e+08 1.88679e+08 1.88679e+08 1.87757e+08 1.87757e+08 1.8684e+08 1.8684e+08 1.85927e+08 1.85927e+08 1.85018e+08 1.85018e+08 1.84113e+08 1.84113e+08 1.83211e+08 1.83211e+08 1.82314e+08 1.82314e+08 1.81421e+08 1.81421e+08 1.80532e+08 1.80532e+08 1.79646e+08 1.79646e+08 1.78765e+08 1.78765e+08 1.77887e+08 1.77887e+08 1.77014e+08 1.77014e+08 1.76144e+08 1.76144e+08 1.75277e+08 1.75277e+08 1.74415e+08 1.74415e+08 1.73557e+08 1.73557e+08 1.72702e+08 1.72702e+08 1.71851e+08 1.71851e+08 1.71003e+08 1.71003e+08 1.7016e+08 1.7016e+08 1.6932e+08 1.6932e+08 1.68483e+08 1.68483e+08 1.6765e+08 1.6765e+08 1.66821e+08 1.66821e+08 1.65996e+08 1.65996e+08 1.65174e+08 1.65174e+08 1.64355e+08 1.64355e+08 1.63541e+08 1.63541e+08 1.62729e+08 1.62729e+08 1.61921e+08 1.61921e+08 1.61117e+08 1.61117e+08 1.60316e+08 1.60316e+08 1.59519e+08 1.59519e+08 1.58725e+08 1.58725e+08 1.57934e+08 1.57934e+08 1.57147e+08 1.57147e+08 1.56363e+08 1.56363e+08 1.55582e+08 1.55582e+08 1.54805e+08 1.54805e+08 1.54031e+08 1.54031e+08 1.53261e+08 1.53261e+08 1.52494e+08 1.52494e+08 1.5173e+08 1.5173e+08 1.50969e+08 1.50969e+08 1.50212e+08 1.50212e+08 1.49457e+08 1.49457e+08 1.48706e+08 1.48706e+08 1.47958e+08 1.47958e+08 1.47214e+08 1.47214e+08 1.46472e+08 1.46472e+08 1.45734e+08 1.45734e+08 1.44999e+08 1.44999e+08 1.44266e+08 1.44266e+08 1.43537e+08 1.43537e+08 1.42811e+08 1.42811e+08 1.42088e+08 1.42088e+08 1.41369e+08 1.41369e+08 1.40652e+08 1.40652e+08 1.39938e+08 1.39938e+08 1.39227e+08 1.39227e+08 1.38519e+08 1.38519e+08 1.37814e+08 1.37814e+08 1.37112e+08 1.37112e+08 1.36413e+08 1.36413e+08 1.35717e+08 1.35717e+08 1.35024e+08 1.35024e+08 1.34334e+08 1.34334e+08 1.33646e+08 1.33646e+08 1.32962e+08 1.32962e+08 1.3228e+08 1.3228e+08 1.31601e+08 1.31601e+08 1.30925e+08 1.30925e+08 1.30252e+08 1.30252e+08 1.29581e+08 1.29581e+08 1.28914e+08 1.28914e+08 1.28249e+08 1.28249e+08 1.27587e+08 1.27587e+08 1.26927e+08 1.26927e+08 1.26271e+08 1.26271e+08 1.25617e+08 1.25617e+08 1.24965e+08 1.24965e+08 1.24317e+08 1.24317e+08 1.23671e+08 1.23671e+08 1.23027e+08 1.23027e+08 1.22387e+08 1.22387e+08 1.21749e+08 1.21749e+08 1.21113e+08 1.21113e+08 1.20481e+08 1.20481e+08 1.1985e+08 1.1985e+08 1.19223e+08 1.19223e+08 1.18598e+08 1.18598e+08 1.17975e+08 1.17975e+08 1.17355e+08 1.17355e+08 1.16738e+08 1.16738e+08 1.16123e+08 1.16123e+08 1.1551e+08 1.1551e+08 1.149e+08 1.149e+08 1.14293e+08 1.14293e+08 1.13688e+08 1.13688e+08 1.13085e+08 1.13085e+08 1.12485e+08 1.12485e+08 1.11887e+08 1.11887e+08 1.11292e+08 1.11292e+08 1.10699e+08 1.10699e+08 1.10109e+08 1.10109e+08 1.09521e+08 1.09521e+08 1.08935e+08 1.08935e+08 1.08351e+08 1.08351e+08 1.0777e+08 1.0777e+08 1.07192e+08 1.07192e+08 1.06615e+08 1.06615e+08 1.06041e+08 1.06041e+08 1.05469e+08 1.05469e+08 1.049e+08 1.049e+08 1.04333e+08 1.04333e+08 1.03768e+08 1.03768e+08 1.03205e+08 1.03205e+08 1.02645e+08 1.02645e+08 1.02087e+08 1.02087e+08 1.01531e+08 1.01531e+08 1.00977e+08 1.00977e+08 1.00425e+08 1.00425e+08 9.98758e+07 9.98758e+07 9.93286e+07 9.93286e+07 9.87835e+07 9.87835e+07 9.82407e+07 9.82407e+07 9.76999e+07 9.76999e+07 9.71614e+07 9.71614e+07 9.66249e+07 9.66249e+07 9.60906e+07 9.60906e+07 9.55583e+07 9.55583e+07 9.50282e+07 9.50282e+07 9.45001e+07 9.45001e+07 9.39742e+07 9.39742e+07 9.34503e+07 9.34503e+07 9.29284e+07 9.29284e+07 9.24086e+07 9.24086e+07 9.18908e+07 9.18908e+07 9.13751e+07 9.13751e+07 9.08614e+07 9.08614e+07 9.03497e+07 9.03497e+07 8.984e+07 8.984e+07 8.93323e+07 8.93323e+07 8.88265e+07 8.88265e+07 8.83228e+07 8.83228e+07 8.7821e+07 8.7821e+07 8.73211e+07 8.73211e+07 8.68232e+07 8.68232e+07 8.63272e+07 8.63272e+07 8.58332e+07 8.58332e+07 8.53411e+07 8.53411e+07 8.48508e+07 8.48508e+07 8.43625e+07 8.43625e+07 8.38761e+07 8.38761e+07 8.33915e+07 8.33915e+07 8.29088e+07 8.29088e+07 8.2428e+07 8.2428e+07 8.19491e+07 8.19491e+07 8.14719e+07 8.14719e+07 8.09966e+07 8.09966e+07 8.05232e+07 8.05232e+07 8.00516e+07 8.00516e+07 7.95817e+07 7.95817e+07 7.91137e+07 7.91137e+07 7.86475e+07 7.86475e+07 7.8183e+07 7.8183e+07 7.77204e+07 7.77204e+07 7.72595e+07 7.72595e+07 7.68003e+07 7.68003e+07 7.63429e+07 7.63429e+07 7.58873e+07 7.58873e+07 7.54334e+07 7.54334e+07 7.49812e+07 7.49812e+07 7.45308e+07 7.45308e+07 7.4082e+07 7.4082e+07 7.3635e+07 7.3635e+07 7.31897e+07 7.31897e+07 7.2746e+07 7.2746e+07 7.2304e+07 7.2304e+07 7.18637e+07 7.18637e+07 7.14251e+07 7.14251e+07 7.09882e+07 7.09882e+07 7.05528e+07 7.05528e+07 7.01192e+07 7.01192e+07 6.96871e+07 6.96871e+07 6.92567e+07 6.92567e+07 6.88279e+07 6.88279e+07 6.84007e+07 6.84007e+07 6.79752e+07 6.79752e+07 6.75512e+07 6.75512e+07 6.71288e+07 6.71288e+07 6.6708e+07 6.6708e+07 6.62888e+07 6.62888e+07 6.58712e+07 6.58712e+07 6.54551e+07 6.54551e+07 6.50405e+07 6.50405e+07 6.46276e+07 6.46276e+07 6.42161e+07 6.42161e+07 6.38062e+07 6.38062e+07 6.33978e+07 6.33978e+07 6.2991e+07 6.2991e+07 6.25856e+07 6.25856e+07 6.21818e+07 6.21818e+07 6.17795e+07 6.17795e+07 6.13786e+07 6.13786e+07 6.09793e+07 6.09793e+07 6.05814e+07 6.05814e+07 6.0185e+07 6.0185e+07 5.97901e+07 5.97901e+07 5.93966e+07 5.93966e+07 5.90046e+07 5.90046e+07 5.8614e+07 5.8614e+07 5.82249e+07 5.82249e+07 5.78372e+07 5.78372e+07 5.74509e+07 5.74509e+07 5.70661e+07 5.70661e+07 5.66827e+07 5.66827e+07 5.63006e+07 5.63006e+07 5.592e+07 5.592e+07 5.55408e+07 5.55408e+07 5.5163e+07 5.5163e+07 5.47865e+07 5.47865e+07 5.44115e+07 5.44115e+07 5.40378e+07 5.40378e+07 5.36655e+07 5.36655e+07 5.32945e+07 5.32945e+07 5.29249e+07 5.29249e+07 5.25566e+07 5.25566e+07 5.21897e+07 5.21897e+07 5.18241e+07 5.18241e+07 5.14599e+07 5.14599e+07 5.10969e+07 5.10969e+07 5.07353e+07 5.07353e+07 5.0375e+07 5.0375e+07 5.00161e+07 5.00161e+07 4.96584e+07 4.96584e+07 4.9302e+07 4.9302e+07 4.89469e+07 4.89469e+07 4.85931e+07 4.85931e+07 4.82405e+07 4.82405e+07 4.78893e+07 4.78893e+07 4.75393e+07 4.75393e+07 4.71906e+07 4.71906e+07 4.68431e+07 4.68431e+07 4.64969e+07 4.64969e+07 4.61519e+07 4.61519e+07 4.58082e+07 4.58082e+07 4.54657e+07 4.54657e+07 4.51244e+07 4.51244e+07 4.47844e+07 4.47844e+07 4.44455e+07 4.44455e+07 4.41079e+07 4.41079e+07 4.37715e+07 4.37715e+07 4.34363e+07 4.34363e+07 4.31023e+07 4.31023e+07 4.27695e+07 4.27695e+07 4.24379e+07 4.24379e+07 4.21075e+07 4.21075e+07 4.17783e+07 4.17783e+07 4.14502e+07 4.14502e+07 4.11233e+07 4.11233e+07 4.07975e+07 4.07975e+07 4.04729e+07 4.04729e+07 4.01495e+07 4.01495e+07 3.98272e+07 3.98272e+07 3.95061e+07 3.95061e+07 3.91861e+07 3.91861e+07 3.88672e+07 3.88672e+07 3.85495e+07 3.85495e+07 3.82329e+07 3.82329e+07 3.79174e+07 3.79174e+07 3.7603e+07 3.7603e+07 3.72897e+07 3.72897e+07 3.69776e+07 3.69776e+07 3.66665e+07 3.66665e+07 3.63565e+07 3.63565e+07 3.60477e+07 3.60477e+07 3.57399e+07 3.57399e+07 3.54332e+07 3.54332e+07 3.51275e+07 3.51275e+07 3.4823e+07 3.4823e+07 3.45195e+07 3.45195e+07 3.42171e+07 3.42171e+07 3.39157e+07 3.39157e+07 3.36154e+07 3.36154e+07 3.33162e+07 3.33162e+07 3.3018e+07 3.3018e+07 3.27208e+07 3.27208e+07 3.24247e+07 3.24247e+07 3.21296e+07 3.21296e+07 3.18355e+07 3.18355e+07 3.15425e+07 3.15425e+07 3.12505e+07 3.12505e+07 3.09595e+07 3.09595e+07 3.06695e+07 3.06695e+07 3.03805e+07 3.03805e+07 3.00925e+07 3.00925e+07 2.98056e+07 2.98056e+07 2.95196e+07 2.95196e+07 2.92346e+07 2.92346e+07 2.89506e+07 2.89506e+07 2.86676e+07 2.86676e+07 2.83856e+07 2.83856e+07 2.81045e+07 2.81045e+07 2.78244e+07 2.78244e+07 2.75453e+07 2.75453e+07 2.72671e+07 2.72671e+07 2.69899e+07 2.69899e+07 2.67137e+07 2.67137e+07 2.64384e+07 2.64384e+07 2.61641e+07 2.61641e+07 2.58907e+07 2.58907e+07 2.56182e+07 2.56182e+07 2.53467e+07 2.53467e+07 2.50761e+07 2.50761e+07 2.48064e+07 2.48064e+07 2.45377e+07 2.45377e+07 2.42699e+07 2.42699e+07 2.4003e+07 2.4003e+07 2.3737e+07 2.3737e+07 2.34719e+07 2.34719e+07 2.32078e+07 2.32078e+07 2.29445e+07 2.29445e+07 2.26821e+07 2.26821e+07 2.24207e+07 2.24207e+07 2.21601