# vtk DataFile Version 3.0
#This file was generated by the deal.II library on 2020/8/11 at 19:54:36
ASCII
DATASET UNSTRUCTURED_GRID

POINTS 4096 double
0.5 0 0
0.743896 0 0
0.743896 0 0
0.987793 0 0
0.987793 0 0
1.23169 0 0
1.23169 0 0
1.47559 0 0
1.47559 0 0
1.71948 0 0
1.71948 0 0
1.96338 0 0
1.96338 0 0
2.20728 0 0
2.20728 0 0
2.45117 0 0
2.45117 0 0
2.69507 0 0
2.69507 0 0
2.93896 0 0
2.93896 0 0
3.18286 0 0
3.18286 0 0
3.42676 0 0
3.42676 0 0
3.67065 0 0
3.67065 0 0
3.91455 0 0
3.91455 0 0
4.15845 0 0
4.15845 0 0
4.40234 0 0
4.40234 0 0
4.64624 0 0
4.64624 0 0
4.89014 0 0
4.89014 0 0
5.13403 0 0
5.13403 0 0
5.37793 0 0
5.37793 0 0
5.62183 0 0
5.62183 0 0
5.86572 0 0
5.86572 0 0
6.10962 0 0
6.10962 0 0
6.35352 0 0
6.35352 0 0
6.59741 0 0
6.59741 0 0
6.84131 0 0
6.84131 0 0
7.08521 0 0
7.08521 0 0
7.3291 0 0
7.3291 0 0
7.573 0 0
7.573 0 0
7.81689 0 0
7.81689 0 0
8.06079 0 0
8.06079 0 0
8.30469 0 0
8.30469 0 0
8.54858 0 0
8.54858 0 0
8.79248 0 0
8.79248 0 0
9.03638 0 0
9.03638 0 0
9.28027 0 0
9.28027 0 0
9.52417 0 0
9.52417 0 0
9.76807 0 0
9.76807 0 0
10.012 0 0
10.012 0 0
10.2559 0 0
10.2559 0 0
10.4998 0 0
10.4998 0 0
10.7437 0 0
10.7437 0 0
10.9875 0 0
10.9875 0 0
11.2314 0 0
11.2314 0 0
11.4753 0 0
11.4753 0 0
11.7192 0 0
11.7192 0 0
11.9631 0 0
11.9631 0 0
12.207 0 0
12.207 0 0
12.4509 0 0
12.4509 0 0
12.6948 0 0
12.6948 0 0
12.9387 0 0
12.9387 0 0
13.1826 0 0
13.1826 0 0
13.4265 0 0
13.4265 0 0
13.6704 0 0
13.6704 0 0
13.9143 0 0
13.9143 0 0
14.1582 0 0
14.1582 0 0
14.4021 0 0
14.4021 0 0
14.646 0 0
14.646 0 0
14.8899 0 0
14.8899 0 0
15.1338 0 0
15.1338 0 0
15.3777 0 0
15.3777 0 0
15.6216 0 0
15.6216 0 0
15.8655 0 0
15.8655 0 0
16.1094 0 0
16.1094 0 0
16.3533 0 0
16.3533 0 0
16.5972 0 0
16.5972 0 0
16.8411 0 0
16.8411 0 0
17.085 0 0
17.085 0 0
17.3289 0 0
17.3289 0 0
17.5728 0 0
17.5728 0 0
17.8167 0 0
17.8167 0 0
18.0605 0 0
18.0605 0 0
18.3044 0 0
18.3044 0 0
18.5483 0 0
18.5483 0 0
18.7922 0 0
18.7922 0 0
19.0361 0 0
19.0361 0 0
19.28 0 0
19.28 0 0
19.5239 0 0
19.5239 0 0
19.7678 0 0
19.7678 0 0
20.0117 0 0
20.0117 0 0
20.2556 0 0
20.2556 0 0
20.4995 0 0
20.4995 0 0
20.7434 0 0
20.7434 0 0
20.9873 0 0
20.9873 0 0
21.2312 0 0
21.2312 0 0
21.4751 0 0
21.4751 0 0
21.719 0 0
21.719 0 0
21.9629 0 0
21.9629 0 0
22.2068 0 0
22.2068 0 0
22.4507 0 0
22.4507 0 0
22.6946 0 0
22.6946 0 0
22.9385 0 0
22.9385 0 0
23.1824 0 0
23.1824 0 0
23.4263 0 0
23.4263 0 0
23.6702 0 0
23.6702 0 0
23.9141 0 0
23.9141 0 0
24.158 0 0
24.158 0 0
24.4019 0 0
24.4019 0 0
24.6458 0 0
24.6458 0 0
24.8896 0 0
24.8896 0 0
25.1335 0 0
25.1335 0 0
25.3774 0 0
25.3774 0 0
25.6213 0 0
25.6213 0 0
25.8652 0 0
25.8652 0 0
26.1091 0 0
26.1091 0 0
26.353 0 0
26.353 0 0
26.5969 0 0
26.5969 0 0
26.8408 0 0
26.8408 0 0
27.0847 0 0
27.0847 0 0
27.3286 0 0
27.3286 0 0
27.5725 0 0
27.5725 0 0
27.8164 0 0
27.8164 0 0
28.0603 0 0
28.0603 0 0
28.3042 0 0
28.3042 0 0
28.5481 0 0
28.5481 0 0
28.792 0 0
28.792 0 0
29.0359 0 0
29.0359 0 0
29.2798 0 0
29.2798 0 0
29.5237 0 0
29.5237 0 0
29.7676 0 0
29.7676 0 0
30.0115 0 0
30.0115 0 0
30.2554 0 0
30.2554 0 0
30.4993 0 0
30.4993 0 0
30.7432 0 0
30.7432 0 0
30.9871 0 0
30.9871 0 0
31.231 0 0
31.231 0 0
31.4749 0 0
31.4749 0 0
31.7188 0 0
31.7188 0 0
31.9626 0 0
31.9626 0 0
32.2065 0 0
32.2065 0 0
32.4504 0 0
32.4504 0 0
32.6943 0 0
32.6943 0 0
32.9382 0 0
32.9382 0 0
33.1821 0 0
33.1821 0 0
33.426 0 0
33.426 0 0
33.6699 0 0
33.6699 0 0
33.9138 0 0
33.9138 0 0
34.1577 0 0
34.1577 0 0
34.4016 0 0
34.4016 0 0
34.6455 0 0
34.6455 0 0
34.8894 0 0
34.8894 0 0
35.1333 0 0
35.1333 0 0
35.3772 0 0
35.3772 0 0
35.6211 0 0
35.6211 0 0
35.865 0 0
35.865 0 0
36.1089 0 0
36.1089 0 0
36.3528 0 0
36.3528 0 0
36.5967 0 0
36.5967 0 0
36.8406 0 0
36.8406 0 0
37.0845 0 0
37.0845 0 0
37.3284 0 0
37.3284 0 0
37.5723 0 0
37.5723 0 0
37.8162 0 0
37.8162 0 0
38.0601 0 0
38.0601 0 0
38.304 0 0
38.304 0 0
38.5479 0 0
38.5479 0 0
38.7917 0 0
38.7917 0 0
39.0356 0 0
39.0356 0 0
39.2795 0 0
39.2795 0 0
39.5234 0 0
39.5234 0 0
39.7673 0 0
39.7673 0 0
40.0112 0 0
40.0112 0 0
40.2551 0 0
40.2551 0 0
40.499 0 0
40.499 0 0
40.7429 0 0
40.7429 0 0
40.9868 0 0
40.9868 0 0
41.2307 0 0
41.2307 0 0
41.4746 0 0
41.4746 0 0
41.7185 0 0
41.7185 0 0
41.9624 0 0
41.9624 0 0
42.2063 0 0
42.2063 0 0
42.4502 0 0
42.4502 0 0
42.6941 0 0
42.6941 0 0
42.938 0 0
42.938 0 0
43.1819 0 0
43.1819 0 0
43.4258 0 0
43.4258 0 0
43.6697 0 0
43.6697 0 0
43.9136 0 0
43.9136 0 0
44.1575 0 0
44.1575 0 0
44.4014 0 0
44.4014 0 0
44.6453 0 0
44.6453 0 0
44.8892 0 0
44.8892 0 0
45.1331 0 0
45.1331 0 0
45.377 0 0
45.377 0 0
45.6208 0 0
45.6208 0 0
45.8647 0 0
45.8647 0 0
46.1086 0 0
46.1086 0 0
46.3525 0 0
46.3525 0 0
46.5964 0 0
46.5964 0 0
46.8403 0 0
46.8403 0 0
47.0842 0 0
47.0842 0 0
47.3281 0 0
47.3281 0 0
47.572 0 0
47.572 0 0
47.8159 0 0
47.8159 0 0
48.0598 0 0
48.0598 0 0
48.3037 0 0
48.3037 0 0
48.5476 0 0
48.5476 0 0
48.7915 0 0
48.7915 0 0
49.0354 0 0
49.0354 0 0
49.2793 0 0
49.2793 0 0
49.5232 0 0
49.5232 0 0
49.7671 0 0
49.7671 0 0
50.011 0 0
50.011 0 0
50.2549 0 0
50.2549 0 0
50.4988 0 0
50.4988 0 0
50.7427 0 0
50.7427 0 0
50.9866 0 0
50.9866 0 0
51.2305 0 0
51.2305 0 0
51.4744 0 0
51.4744 0 0
51.7183 0 0
51.7183 0 0
51.9622 0 0
51.9622 0 0
52.2061 0 0
52.2061 0 0
52.45 0 0
52.45 0 0
52.6938 0 0
52.6938 0 0
52.9377 0 0
52.9377 0 0
53.1816 0 0
53.1816 0 0
53.4255 0 0
53.4255 0 0
53.6694 0 0
53.6694 0 0
53.9133 0 0
53.9133 0 0
54.1572 0 0
54.1572 0 0
54.4011 0 0
54.4011 0 0
54.645 0 0
54.645 0 0
54.8889 0 0
54.8889 0 0
55.1328 0 0
55.1328 0 0
55.3767 0 0
55.3767 0 0
55.6206 0 0
55.6206 0 0
55.8645 0 0
55.8645 0 0
56.1084 0 0
56.1084 0 0
56.3523 0 0
56.3523 0 0
56.5962 0 0
56.5962 0 0
56.8401 0 0
56.8401 0 0
57.084 0 0
57.084 0 0
57.3279 0 0
57.3279 0 0
57.5718 0 0
57.5718 0 0
57.8157 0 0
57.8157 0 0
58.0596 0 0
58.0596 0 0
58.3035 0 0
58.3035 0 0
58.5474 0 0
58.5474 0 0
58.7913 0 0
58.7913 0 0
59.0352 0 0
59.0352 0 0
59.2791 0 0
59.2791 0 0
59.5229 0 0
59.5229 0 0
59.7668 0 0
59.7668 0 0
60.0107 0 0
60.0107 0 0
60.2546 0 0
60.2546 0 0
60.4985 0 0
60.4985 0 0
60.7424 0 0
60.7424 0 0
60.9863 0 0
60.9863 0 0
61.2302 0 0
61.2302 0 0
61.4741 0 0
61.4741 0 0
61.718 0 0
61.718 0 0
61.9619 0 0
61.9619 0 0
62.2058 0 0
62.2058 0 0
62.4497 0 0
62.4497 0 0
62.6936 0 0
62.6936 0 0
62.9375 0 0
62.9375 0 0
63.1814 0 0
63.1814 0 0
63.4253 0 0
63.4253 0 0
63.6692 0 0
63.6692 0 0
63.9131 0 0
63.9131 0 0
64.157 0 0
64.157 0 0
64.4009 0 0
64.4009 0 0
64.6448 0 0
64.6448 0 0
64.8887 0 0
64.8887 0 0
65.1326 0 0
65.1326 0 0
65.3765 0 0
65.3765 0 0
65.6204 0 0
65.6204 0 0
65.8643 0 0
65.8643 0 0
66.1082 0 0
66.1082 0 0
66.3521 0 0
66.3521 0 0
66.5959 0 0
66.5959 0 0
66.8398 0 0
66.8398 0 0
67.0837 0 0
67.0837 0 0
67.3276 0 0
67.3276 0 0
67.5715 0 0
67.5715 0 0
67.8154 0 0
67.8154 0 0
68.0593 0 0
68.0593 0 0
68.3032 0 0
68.3032 0 0
68.5471 0 0
68.5471 0 0
68.791 0 0
68.791 0 0
69.0349 0 0
69.0349 0 0
69.2788 0 0
69.2788 0 0
69.5227 0 0
69.5227 0 0
69.7666 0 0
69.7666 0 0
70.0105 0 0
70.0105 0 0
70.2544 0 0
70.2544 0 0
70.4983 0 0
70.4983 0 0
70.7422 0 0
70.7422 0 0
70.9861 0 0
70.9861 0 0
71.23 0 0
71.23 0 0
71.4739 0 0
71.4739 0 0
71.7178 0 0
71.7178 0 0
71.9617 0 0
71.9617 0 0
72.2056 0 0
72.2056 0 0
72.4495 0 0
72.4495 0 0
72.6934 0 0
72.6934 0 0
72.9373 0 0
72.9373 0 0
73.1812 0 0
73.1812 0 0
73.425 0 0
73.425 0 0
73.6689 0 0
73.6689 0 0
73.9128 0 0
73.9128 0 0
74.1567 0 0
74.1567 0 0
74.4006 0 0
74.4006 0 0
74.6445 0 0
74.6445 0 0
74.8884 0 0
74.8884 0 0
75.1323 0 0
75.1323 0 0
75.3762 0 0
75.3762 0 0
75.6201 0 0
75.6201 0 0
75.864 0 0
75.864 0 0
76.1079 0 0
76.1079 0 0
76.3518 0 0
76.3518 0 0
76.5957 0 0
76.5957 0 0
76.8396 0 0
76.8396 0 0
77.0835 0 0
77.0835 0 0
77.3274 0 0
77.3274 0 0
77.5713 0 0
77.5713 0 0
77.8152 0 0
77.8152 0 0
78.0591 0 0
78.0591 0 0
78.303 0 0
78.303 0 0
78.5469 0 0
78.5469 0 0
78.7908 0 0
78.7908 0 0
79.0347 0 0
79.0347 0 0
79.2786 0 0
79.2786 0 0
79.5225 0 0
79.5225 0 0
79.7664 0 0
79.7664 0 0
80.0103 0 0
80.0103 0 0
80.2542 0 0
80.2542 0 0
80.498 0 0
80.498 0 0
80.7419 0 0
80.7419 0 0
80.9858 0 0
80.9858 0 0
81.2297 0 0
81.2297 0 0
81.4736 0 0
81.4736 0 0
81.7175 0 0
81.7175 0 0
81.9614 0 0
81.9614 0 0
82.2053 0 0
82.2053 0 0
82.4492 0 0
82.4492 0 0
82.6931 0 0
82.6931 0 0
82.937 0 0
82.937 0 0
83.1809 0 0
83.1809 0 0
83.4248 0 0
83.4248 0 0
83.6687 0 0
83.6687 0 0
83.9126 0 0
83.9126 0 0
84.1565 0 0
84.1565 0 0
84.4004 0 0
84.4004 0 0
84.6443 0 0
84.6443 0 0
84.8882 0 0
84.8882 0 0
85.1321 0 0
85.1321 0 0
85.376 0 0
85.376 0 0
85.6199 0 0
85.6199 0 0
85.8638 0 0
85.8638 0 0
86.1077 0 0
86.1077 0 0
86.3516 0 0
86.3516 0 0
86.5955 0 0
86.5955 0 0
86.8394 0 0
86.8394 0 0
87.0833 0 0
87.0833 0 0
87.3271 0 0
87.3271 0 0
87.571 0 0
87.571 0 0
87.8149 0 0
87.8149 0 0
88.0588 0 0
88.0588 0 0
88.3027 0 0
88.3027 0 0
88.5466 0 0
88.5466 0 0
88.7905 0 0
88.7905 0 0
89.0344 0 0
89.0344 0 0
89.2783 0 0
89.2783 0 0
89.5222 0 0
89.5222 0 0
89.7661 0 0
89.7661 0 0
90.01 0 0
90.01 0 0
90.2539 0 0
90.2539 0 0
90.4978 0 0
90.4978 0 0
90.7417 0 0
90.7417 0 0
90.9856 0 0
90.9856 0 0
91.2295 0 0
91.2295 0 0
91.4734 0 0
91.4734 0 0
91.7173 0 0
91.7173 0 0
91.9612 0 0
91.9612 0 0
92.2051 0 0
92.2051 0 0
92.449 0 0
92.449 0 0
92.6929 0 0
92.6929 0 0
92.9368 0 0
92.9368 0 0
93.1807 0 0
93.1807 0 0
93.4246 0 0
93.4246 0 0
93.6685 0 0
93.6685 0 0
93.9124 0 0
93.9124 0 0
94.1562 0 0
94.1562 0 0
94.4001 0 0
94.4001 0 0
94.644 0 0
94.644 0 0
94.8879 0 0
94.8879 0 0
95.1318 0 0
95.1318 0 0
95.3757 0 0
95.3757 0 0
95.6196 0 0
95.6196 0 0
95.8635 0 0
95.8635 0 0
96.1074 0 0
96.1074 0 0
96.3513 0 0
96.3513 0 0
96.5952 0 0
96.5952 0 0
96.8391 0 0
96.8391 0 0
97.083 0 0
97.083 0 0
97.3269 0 0
97.3269 0 0
97.5708 0 0
97.5708 0 0
97.8147 0 0
97.8147 0 0
98.0586 0 0
98.0586 0 0
98.3025 0 0
98.3025 0 0
98.5464 0 0
98.5464 0 0
98.7903 0 0
98.7903 0 0
99.0342 0 0
99.0342 0 0
99.2781 0 0
99.2781 0 0
99.522 0 0
99.522 0 0
99.7659 0 0
99.7659 0 0
100.01 0 0
100.01 0 0
100.254 0 0
100.254 0 0
100.498 0 0
100.498 0 0
100.741 0 0
100.741 0 0
100.985 0 0
100.985 0 0
101.229 0 0
101.229 0 0
101.473 0 0
[...]
POINT_DATA 4096
SCALARS solution_0 double 1
LOOKUP_TABLE default
0.186048 -1.04084e+14 -1.04084e+14 -4.10141e+13 -4.10141e+13 -2.6769e+13 -2.6769e+13 -1.97872e+13 -1.97872e+13 -1.54847e+13 -1.54847e+13 -1.25217e+13 -1.25217e+13 -1.03437e+13 -1.03437e+13 -8.67356e+12 -8.67356e+12 -7.35423e+12 -7.35423e+12 -6.28917e+12 -6.28917e+12 -5.41505e+12 -5.41505e+12 -4.6883e+12 -4.6883e+12 -4.07777e+12 -4.07777e+12 -3.5605e+12 -3.5605e+12 -3.11914e+12 -3.11914e+12 -2.74032e+12 -2.74032e+12 -2.41353e+12 -2.41353e+12 -2.13038e+12 -2.13038e+12 -1.88413e+12 -1.88413e+12 -1.66924e+12 -1.66924e+12 -1.48118e+12 -1.48118e+12 -1.31618e+12 -1.31618e+12 -1.17105e+12 -1.17105e+12 -1.04315e+12 -1.04315e+12 -9.30221e+11 -9.30221e+11 -8.30334e+11 -8.30334e+11 -7.41848e+11 -7.41848e+11 -6.63351e+11 -6.63351e+11 -5.93623e+11 -5.93623e+11 -5.31611e+11 -5.31611e+11 -4.764e+11 -4.764e+11 -4.27195e+11 -4.27195e+11 -3.83299e+11 -3.83299e+11 -3.44105e+11 -3.44105e+11 -3.09082e+11 -3.09082e+11 -2.77761e+11 -2.77761e+11 -2.4973e+11 -2.4973e+11 -2.24627e+11 -2.24627e+11 -2.02133e+11 -2.02133e+11 -1.81963e+11 -1.81963e+11 -1.63867e+11 -1.63867e+11 -1.47624e+11 -1.47624e+11 -1.33036e+11 -1.33036e+11 -1.19929e+11 -1.19929e+11 -1.08147e+11 -1.08147e+11 -9.75514e+10 -9.75514e+10 -8.80187e+10 -8.80187e+10 -7.94391e+10 -7.94391e+10 -7.17145e+10 -7.17145e+10 -6.47571e+10 -6.47571e+10 -5.84887e+10 -5.84887e+10 -5.28393e+10 -5.28393e+10 -4.7746e+10 -4.7746e+10 -4.31529e+10 -4.31529e+10 -3.90097e+10 -3.90097e+10 -3.52712e+10 -3.52712e+10 -3.1897e+10 -3.1897e+10 -2.88509e+10 -2.88509e+10 -2.61004e+10 -2.61004e+10 -2.36161e+10 -2.36161e+10 -2.13718e+10 -2.13718e+10 -1.93439e+10 -1.93439e+10 -1.75111e+10 -1.75111e+10 -1.58544e+10 -1.58544e+10 -1.43564e+10 -1.43564e+10 -1.30019e+10 -1.30019e+10 -1.17767e+10 -1.17767e+10 -1.06684e+10 -1.06684e+10 -9.66566e+09 -9.66566e+09 -8.75825e+09 -8.75825e+09 -7.93699e+09 -7.93699e+09 -7.19358e+09 -7.19358e+09 -6.52055e+09 -6.52055e+09 -5.91115e+09 -5.91115e+09 -5.35928e+09 -5.35928e+09 -4.85944e+09 -4.85944e+09 -4.40668e+09 -4.40668e+09 -3.9965e+09 -3.9965e+09 -3.62485e+09 -3.62485e+09 -3.28807e+09 -3.28807e+09 -2.98286e+09 -2.98286e+09 -2.70623e+09 -2.70623e+09 -2.45547e+09 -2.45547e+09 -2.22813e+09 -2.22813e+09 -2.02201e+09 -2.02201e+09 -1.83511e+09 -1.83511e+09 -1.66562e+09 -1.66562e+09 -1.5119e+09 -1.5119e+09 -1.37247e+09 -1.37247e+09 -1.24599e+09 -1.24599e+09 -1.13125e+09 -1.13125e+09 -1.02715e+09 -1.02715e+09 -9.32697e+08 -9.32697e+08 -8.46985e+08 -8.46985e+08 -7.69201e+08 -7.69201e+08 -6.98607e+08 -6.98607e+08 -6.34532e+08 -6.34532e+08 -5.7637e+08 -5.7637e+08 -5.23571e+08 -5.23571e+08 -4.75637e+08 -4.75637e+08 -4.32118e+08 -4.32118e+08 -3.92603e+08 -3.92603e+08 -3.56722e+08 -3.56722e+08 -3.24138e+08 -3.24138e+08 -2.94546e+08 -2.94546e+08 -2.6767e+08 -2.6767e+08 -2.43259e+08 -2.43259e+08 -2.21086e+08 -2.21086e+08 -2.00944e+08 -2.00944e+08 -1.82646e+08 -1.82646e+08 -1.66023e+08 -1.66023e+08 -1.5092e+08 -1.5092e+08 -1.37197e+08 -1.37197e+08 -1.24727e+08 -1.24727e+08 -1.13396e+08 -1.13396e+08 -1.03099e+08 -1.03099e+08 -9.37414e+07 -9.37414e+07 -8.52365e+07 -8.52365e+07 -7.75066e+07 -7.75066e+07 -7.04806e+07 -7.04806e+07 -6.40941e+07 -6.40941e+07 -5.82887e+07 -5.82887e+07 -5.30112e+07 -5.30112e+07 -4.82134e+07 -4.82134e+07 -4.38515e+07 -4.38515e+07 -3.98858e+07 -3.98858e+07 -3.628e+07 -3.628e+07 -3.30014e+07 -3.30014e+07 -3.00201e+07 -3.00201e+07 -2.73092e+07 -2.73092e+07 -2.48439e+07 -2.48439e+07 -2.26019e+07 -2.26019e+07 -2.0563e+07 -2.0563e+07 -1.87086e+07 -1.87086e+07 -1.7022e+07 -1.7022e+07 -1.54879e+07 -1.54879e+07 -1.40926e+07 -1.40926e+07 -1.28234e+07 -1.28234e+07 -1.16688e+07 -1.16688e+07 -1.06185e+07 -1.06185e+07 -9.66302e+06 -9.66302e+06 -8.79379e+06 -8.79379e+06 -8.00298e+06 -8.00298e+06 -7.2835e+06 -7.2835e+06 -6.62889e+06 -6.62889e+06 -6.03328e+06 -6.03328e+06 -5.49133e+06 -5.49133e+06 -4.99821e+06 -4.99821e+06 -4.54949e+06 -4.54949e+06 -4.14116e+06 -4.14116e+06 -3.76958e+06 -3.76958e+06 -3.43143e+06 -3.43143e+06 -3.12369e+06 -3.12369e+06 -2.84362e+06 -2.84362e+06 -2.58873e+06 -2.58873e+06 -2.35674e+06 -2.35674e+06 -2.14559e+06 -2.14559e+06 -1.95341e+06 -1.95341e+06 -1.77848e+06 -1.77848e+06 -1.61926e+06 -1.61926e+06 -1.47432e+06 -1.47432e+06 -1.34239e+06 -1.34239e+06 -1.22229e+06 -1.22229e+06 -1.11296e+06 -1.11296e+06 -1.01343e+06 -1.01343e+06 -922825 -922825 -840336 -840336 -765236 -765236 -696863 -696863 -634612 -634612 -577933 -577933 -526327 -526327 -479338 -479338 -436554 -436554 -397595 -397595 -362121 -362121 -329817 -329817 -300401 -300401 -273614 -273614 -249220 -249220 -227004 -227004 -206773 -206773 -188348 -188348 -171568 -171568 -156286 -156286 -142367 -142367 -129690 -129690 -118144 -118144 -107628 -107628 -98049 -98049 -89324.2 -89324.2 -81377.1 -81377.1 -74138.3 -74138.3 -67544.4 -67544.4 -61537.9 -61537.9 -56066.5 -56066.5 -51082.3 -51082.3 -46541.8 -46541.8 -42405.6 -42405.6 -38637.6 -38637.6 -35204.9 -35204.9 -32077.6 -32077.6 -29228.5 -29228.5 -26632.9 -26632.9 -24268.1 -24268.1 -22113.6 -22113.6 -20150.6 -20150.6 -18362.2 -18362.2 -16732.7 -16732.7 -15248 -15248 -13895.2 -13895.2 -12662.7 -12662.7 -11539.6 -11539.6 -10516.2 -10516.2 -9583.73 -9583.73 -8734.05 -8734.05 -7959.8 -7959.8 -7254.27 -7254.27 -6611.36 -6611.36 -6025.51 -6025.51 -5491.63 -5491.63 -5005.12 -5005.12 -4561.76 -4561.76 -4157.72 -4157.72 -3789.52 -3789.52 -3453.96 -3453.96 -3148.15 -3148.15 -2869.45 -2869.45 -2615.45 -2615.45 -2383.96 -2383.96 -2172.99 -2172.99 -1980.7 -1980.7 -1805.46 -1805.46 -1645.73 -1645.73 -1500.15 -1500.15 -1367.47 -1367.47 -1246.53 -1246.53 -1136.3 -1136.3 -1035.83 -1035.83 -944.248 -944.248 -860.775 -860.775 -784.689 -784.689 -715.336 -715.336 -652.118 -652.118 -594.494 -594.494 -541.966 -541.966 -494.085 -494.085 -450.438 -450.438 -410.651 -410.651 -374.381 -374.381 -341.319 -341.319 -311.179 -311.179 -283.703 -283.703 -258.655 -258.655 -235.821 -235.821 -215.005 -215.005 -196.028 -196.028 -178.727 -178.727 -162.955 -162.955 -148.576 -148.576 -135.467 -135.467 -123.516 -123.516 -112.62 -112.62 -102.686 -102.686 -93.6287 -93.6287 -85.3713 -85.3713 -77.8428 -77.8428 -70.9788 -70.9788 -64.7206 -64.7206 -59.0146 -59.0146 -53.8121 -53.8121 -49.0687 -49.0687 -44.7437 -44.7437 -40.8002 -40.8002 -37.2046 -37.2046 -33.9262 -33.9262 -30.9368 -30.9368 -28.2111 -28.2111 -25.7257 -25.7257 -23.4595 -23.4595 -21.393 -21.393 -19.5088 -19.5088 -17.7906 -17.7906 -16.2239 -16.2239 -14.7952 -14.7952 -13.4925 -13.4925 -12.3045 -12.3045 -11.2212 -11.2212 -10.2334 -10.2334 -9.33256 -9.33256 -8.5111 -8.5111 -7.762 -7.762 -7.07887 -7.07887 -6.45589 -6.45589 -5.88777 -5.88777 -5.36966 -5.36966 -4.89715 -4.89715 -4.46622 -4.46622 -4.07318 -4.07318 -3.7147 -3.7147 -3.3877 -3.3877 -3.0894 -3.0894 -2.81725 -2.81725 -2.56892 -2.56892 -2.34228 -2.34228 -2.1354 -2.1354 -1.94652 -1.94652 -1.77402 -1.77402 -1.61646 -1.61646 -1.47253 -1.47253 -1.34105 -1.34105 -1.22098 -1.22098 -1.1114 -1.1114 -1.01151 -1.01151 -0.9206 -0.9206 -0.838081 -0.838081 -0.763427 -0.763427 -0.696178 -0.696178 -0.635911 -0.635911 -0.582218 -0.582218 -0.534681 -0.534681 -0.492848 -0.492848 -0.45622 -0.45622 -0.424244 -0.424244 -0.396311 -0.396311 -0.371779 -0.371779 -0.349997 -0.349997 -0.330339 -0.330339 -0.312244 -0.312244 -0.295251 -0.295251 -0.27902 -0.27902 -0.263346 -0.263346 -0.248146 -0.248146 -0.233437 -0.233437 -0.219293 -0.219293 -0.205806 -0.205806 -0.193044 -0.193044 -0.181033 -0.181033 -0.169746 -0.169746 -0.159119 -0.159119 -0.149075 -0.149075 -0.139556 -0.139556 -0.130546 -0.130546 -0.122072 -0.122072 -0.114198 -0.114198 -0.106987 -0.106987 -0.100476 -0.100476 -0.0946384 -0.0946384 -0.0893828 -0.0893828 -0.0845619 -0.0845619 -0.0800091 -0.0800091 -0.0755823 -0.0755823 -0.0712003 -0.0712003 -0.0668587 -0.0668587 -0.0626182 -0.0626182 -0.058568 -0.058568 -0.0547776 -0.0547776 -0.0512548 -0.0512548 -0.0479246 -0.0479246 -0.0446372 -0.0446372 -0.041201 -0.041201 -0.0374267 -0.0374267 -0.0331661 -0.0331661 -0.0283293 -0.0283293 -0.022874 -0.022874 -0.0167683 -0.0167683 -0.00993874 -0.00993874 -0.0022157 -0.0022157 0.00670941 0.00670941 0.0173075 0.0173075 0.0302125 0.0302125 0.046204 0.046204 0.0661804 0.0661804 0.0911397 0.0911397 0.122181 0.122181 0.160538 0.160538 0.207638 0.207638 0.265158 0.265158 0.335037 0.335037 0.4194 0.4194 0.520361 0.520361 0.639724 0.639724 0.778625 0.778625 0.937206 0.937206 1.11438 1.11438 1.30769 1.30769 1.51328 1.51328 1.72587 1.72587 1.93869 1.93869 2.14344 2.14344 2.33044 2.33044 2.48891 2.48891 2.60781 2.60781 2.67681 2.67681 2.68756 2.68756 2.63481 2.63481 2.5171 2.5171 2.3371 2.3371 2.10151 2.10151 1.82066 1.82066 1.5081 1.5081 1.17994 1.17994 0.853906 0.853906 0.548013 0.548013 0.27874 0.27874 0.0591096 0.0591096 -0.102936 -0.102936 -0.205375 -0.205375 -0.251966 -0.251966 -0.251232 -0.251232 -0.214936 -0.214936 -0.156448 -0.156448 -0.0892307 -0.0892307 -0.0254656 -0.0254656 0.0252283 0.0252283 0.0569288 0.0569288 0.0681198 0.0681198 0.0616044 0.0616044 0.0434179 0.0434179 0.0209251 0.0209251 0.000694913 0.000694913 -0.0130968 -0.0130968 -0.0192131 -0.0192131 -0.0188138 -0.0188138 -0.0142772 -0.0142772 -0.00803392 -0.00803392 -0.00189326 -0.00189326 0.00305089 0.00305089 0.0061942 0.0061942 0.00722798 0.00722798 0.00615764 0.00615764 0.00344725 0.00344725 5.40447e-05 5.40447e-05 -0.00281386 -0.00281386 -0.00416367 -0.00416367 -0.00366053 -0.00366053 -0.00177497 -0.00177497 0.000471548 0.000471548 0.00203018 0.00203018 0.00232813 0.00232813 0.00148462 0.00148462 0.000148843 0.000148843 -0.000913923 -0.000913923 -0.00123574 -0.00123574 -0.000835138 -0.000835138 -0.000110578 -0.000110578 0.00045704 0.00045704 0.000592807 0.000592807 0.000340978 0.000340978 -3.42529e-05 -3.42529e-05 -0.000262118 -0.000262118 -0.000238328 -0.000238328 -5.38363e-05 -5.38363e-05 0.000112801 0.000112801 0.000140821 0.000140821 4.1955e-05 4.1955e-05 -7.60758e-05 -7.60758e-05 -0.000110785 -0.000110785 -4.42281e-05 -4.42281e-05 5.61678e-05 5.61678e-05 0.000103645 0.000103645 6.39439e-05 6.39439e-05 -2.37767e-05 -2.37767e-05 -8.6296e-05 -8.6296e-05 -7.74669e-05 -7.74669e-05 -1.10064e-05 -1.10064e-05 5.67383e-05 5.67383e-05 7.46245e-05 7.46245e-05 3.49407e-05 3.49407e-05 -2.57906e-05 -2.57906e-05 -5.95412e-05 -5.95412e-05 -4.43716e-05 -4.43716e-05 2.05586e-06 2.05586e-06 4.05511e-05 4.05511e-05 4.28333e-05 4.28333e-05 1.19654e-05 1.19654e-05 -2.37189e-05 -2.37189e-05 -3.57295e-05 -3.57295e-05 -1.7878e-05 -1.7878e-05 1.14958e-05 1.14958e-05 2.72398e-05 2.72398e-05 1.8596e-05 1.8596e-05 -3.8433e-06 -3.8433e-06 -1.96209e-05 -1.96209e-05 -1.66881e-05 -1.66881e-05 -3.31971e-07 -3.31971e-07 1.36659e-05 1.36659e-05 1.38593e-05 1.38593e-05 2.25338e-06 2.25338e-06 -9.37219e-06 -9.37219e-06 -1.1031e-05 -1.1031e-05 -2.88312e-06 -2.88312e-06 6.43089e-06 6.43089e-06 8.59742e-06 8.59742e-06 2.8525e-06 2.8525e-06 -4.48581e-06 -4.48581e-06 -6.65756e-06 -6.65756e-06 -2.52551e-06 -2.52551e-06 3.2345e-06 3.2345e-06 5.1705e-06 5.1705e-06 2.09019e-06 2.09019e-06 -2.44788e-06 -2.44788e-06 -4.04457e-06 -4.04457e-06 -1.63493e-06 -1.63493e-06 1.9599e-06 1.9599e-06 3.18304e-06 3.18304e-06 1.19955e-06 1.19955e-06 -1.6522e-06 -1.6522e-06 -2.50513e-06 -2.50513e-06 -8.03977e-07 -8.03977e-07 1.44245e-06 1.44245e-06 1.9531e-06 1.9531e-06 4.6093e-07 4.6093e-07 -1.2768e-06 -1.2768e-06 -1.4914e-06 -1.4914e-06 -1.79152e-07 -1.79152e-07 1.12436e-06 1.12436e-06 1.10134e-06 1.10134e-06 -3.7302e-08 -3.7302e-08 -9.71652e-07 -9.71652e-07 -7.74246e-07 -7.74246e-07 1.89993e-07 1.89993e-07 8.16519e-07 8.16519e-07 5.05348e-07 5.05348e-07 -2.85455e-07 -2.85455e-07 -6.62373e-07 -6.62373e-07 -2.9015e-07 -2.9015e-07 3.33042e-07 3.33042e-07 5.13902e-07 5.13902e-07 1.23382e-07 1.23382e-07 -3.42456e-07 -3.42456e-07 -3.75047e-07 -3.75047e-07 3.44563e-10 3.44563e-10 3.2222e-07 3.2222e-07 2.48936e-07 2.48936e-07 -8.56225e-08 -8.56225e-08 -2.79608e-07 -2.79608e-07 -1.38659e-07 -1.38659e-07 1.36162e-07 1.36162e-07 2.21553e-07 2.21553e-07 4.76923e-08 4.76923e-08 -1.55667e-07 -1.55667e-07 -1.55528e-07 -1.55528e-07 2.06304e-08 2.06304e-08 1.49022e-07 1.49022e-07 8.95755e-08 8.95755e-08 -6.43291e-08 -6.43291e-08 -1.22923e-07 -1.22923e-07 -3.13811e-08 -3.13811e-08 8.38937e-08 8.38937e-08 8.55124e-08 8.55124e-08 -1.30621e-08 -1.30621e-08 -8.26585e-08 -8.26585e-08 -4.52395e-08 -4.52395e-08 4.05045e-08 4.05045e-08 6.63002e-08 6.63002e-08 9.51119e-09 9.51119e-09 -5.08104e-08 -5.08104e-08 -4.17722e-08 -4.17722e-08 1.6384e-08 1.6384e-08 4.66769e-08 4.66769e-08 1.60705e-08 1.60705e-08 -2.99033e-08 -2.99033e-08 -3.29025e-08 -3.29025e-08 4.94234e-09 4.94234e-09 3.14285e-08 3.14285e-08 1.53267e-08 1.53267e-08 -1.75521e-08 -1.75521e-08 -2.39407e-08 -2.39407e-08 4.94797e-10 4.94797e-10 2.08405e-08 2.08405e-08 1.20782e-08 1.20782e-08 -1.0655e-08 -1.0655e-08 -1.66349e-08 -1.66349e-08 -6.62554e-10 -6.62554e-10 1.3818e-08 1.3818e-08 8.5753e-09 8.5753e-09 -6.83707e-09 -6.83707e-09 -1.12194e-08 -1.12194e-08 -5.71806e-10 -5.71806e-10 9.21945e-09 9.21945e-09 5.68438e-09 5.68438e-09 -4.64808e-09 -4.64808e-09 -7.42992e-09 -7.42992e-09 -1.80589e-10 -1.80589e-10 6.22255e-09 6.22255e-09 3.58817e-09 3.58817e-09 -3.33302e-09 -3.33302e-09 -4.88888e-09 -4.88888e-09 1.84562e-10 1.84562e-10 4.28962e-09 4.28962e-09 2.15983e-09 2.15983e-09 -2.53086e-09 -2.53086e-09 -3.21677e-09 -3.21677e-09 4.79752e-10 4.79752e-10 3.04251e-09 3.04251e-09 1.1766e-09 1.1766e-09 -2.0396e-09 -2.0396e-09 -2.07731e-09 -2.07731e-09 7.25254e-10 7.25254e-10 2.18622e-09 2.18622e-09 4.54436e-10 4.54436e-10 -1.69634e-09 -1.69634e-09 -1.22598e-09 -1.22598e-09 9.0206e-10 9.0206e-10 1.50672e-09 1.50672e-09 -8.71365e-11 -8.71365e-11 -1.36456e-09 -1.36456e-09 -5.45842e-10 -5.45842e-10 9.51509e-10 9.51509e-10 9.00428e-10 9.00428e-10 -4.38225e-10 -4.38225e-10 -9.75471e-10 -9.75471e-10 -3.35885e-11 -3.35885e-11 8.3423e-10 8.3423e-10 3.75193e-10 3.75193e-10 -5.68498e-10 -5.68498e-10 -5.53817e-10 -5.53817e-10 2.68405e-10 2.68405e-10 5.8153e-10 5.8153e-10 -3.07821e-12 -3.07821e-12 -4.97757e-10 -4.97757e-10 -1.87217e-10 -1.87217e-10 3.51825e-10 3.51825e-10 2.89874e-10 2.89874e-10 -1.89471e-10 -1.89471e-10 -3.13231e-10 -3.13231e-10 4.48415e-11 4.48415e-11 2.7786e-10 2.7786e-10 6.22867e-11 6.22867e-11 -2.08426e-10 -2.08426e-10 -1.25419e-10 -1.25419e-10 1.27624e-10 1.27624e-10 1.48023e-10 1.48023e-10 -5.26509e-11 -5.26509e-11 -1.39476e-10 -1.39476e-10 -6.0183e-12 -6.0183e-12 1.11351e-10 1.11351e-10 4.41669e-11 4.41669e-11 -7.46257e-11 -7.46257e-11 -6.24005e-11 -6.24005e-11 3.80081e-11 3.80081e-11 6.43698e-11 6.43698e-11 -7.25739e-12 -7.25739e-12 -5.51029e-11 -5.51029e-11 -1.47377e-11 -1.47377e-11 3.9705e-11 3.9705e-11 2.74251e-11 2.74251e-11 -2.25149e-11 -2.25149e-11 -3.18629e-11 -3.18629e-11 6.69219e-12 6.69219e-12 2.99945e-11 2.99945e-11 5.85746e-12 5.85746e-12 -2.40457e-11 -2.40457e-11 -1.43332e-11 -1.43332e-11 1.60964e-11 1.60964e-11 1.87744e-11 1.87744e-11 -7.82861e-12 -7.82861e-12 -1.97651e-11 -1.97651e-11 4.2493e-13 4.2493e-13 1.81654e-11 1.81654e-11 5.42424e-12 5.42424e-12 -1.48993e-11 -1.48993e-11 -9.44598e-12 -9.44598e-12 1.08102e-11 1.08102e-11 1.16792e-11 1.16792e-11 -6.57866e-12 -6.57866e-12 -1.23643e-11 -1.23643e-11 2.69191e-12 2.69191e-12 1.18461e-11 1.18461e-11 5.51255e-13 5.51255e-13 -1.04971e-11 -1.04971e-11 -3.01299e-12 -3.01299e-12 8.66519e-12 8.66519e-12 4.67882e-12 4.67882e-12 -6.64212e-12 -6.64212e-12 -5.61852e-12 -5.61852e-12 4.65041e-12 4.65041e-12 5.95083e-12 5.95083e-12 -2.8424e-12 -2.8424e-12 -5.81498e-12 -5.81498e-12 1.30774e-12 1.30774e-12 5.34994e-12 5.34994e-12 -8.49978e-14 -8.49978e-14 -4.68096e-12 -4.68096e-12 -8.25269e-13 -8.25269e-13 3.91218e-12 3.91218e-12 1.44815e-12 1.44815e-12 -3.12404e-12 -3.12404e-12 -1.82372e-12 -1.82372e-12 2.37389e-12 2.37389e-12 1.9986e-12 1.9986e-12 -1.69865e-12 -1.69865e-12 -2.0199e-12 -2.0199e-12 1.11841e-12 1.11841e-12 1.93113e-12 1.93113e-12 -6.40329e-13 -6.40329e-13 -1.76996e-12 -1.76996e-12 2.62366e-13 2.62366e-13 1.56719e-12 1.56719e-12 2.35609e-14 2.35609e-14 -1.34669e-12 -1.34669e-12 -2.28957e-13 -2.28957e-13 1.12597e-12 1.12597e-12 3.66788e-13 3.66788e-13 -9.16989e-13 -9.16989e-13 -4.50075e-13 -4.50075e-13 7.2721e-13 7.2721e-13 4.9098e-13 4.9098e-13 -5.60565e-13 -5.60565e-13 -5.00273e-13 -5.00273e-13 4.18381e-13 4.18381e-13 4.87092e-13 4.87092e-13 -3.00166e-13 -3.00166e-13 -4.58902e-13 -4.58902e-13 2.04251e-13 2.04251e-13 4.21588e-13 4.21588e-13 -1.28289e-13 -1.28289e-13 -3.79628e-13 -3.79628e-13 6.96238e-14 6.96238e-14 3.36297e-13 3.36297e-13 -2.55573e-14 -2.55573e-14 -2.93881e-13 -2.93881e-13 -6.48326e-15 -6.48326e-15 2.53881e-13 2.53881e-13 2.88388e-14 2.88388e-14 -2.17192e-13 -2.17192e-13 -4.35663e-14 -4.35663e-14 1.84262e-13 1.84262e-13 5.24218e-14 5.24218e-14 -1.55215e-13 -1.55215e-13 -5.68683e-14 -5.68683e-14 1.2996e-13 1.2996e-13 5.80971e-14 5.80971e-14 -1.08266e-13 -1.08266e-13 -5.7059e-14 -5.7059e-14 8.98185e-14 8.98185e-14 5.44966e-14 5.44966e-14 -7.42697e-14 -7.42697e-14 -5.09782e-14 -5.09782e-14 6.12622e-14 6.12622e-14 4.69289e-14 4.69289e-14 -5.04511e-14 -5.04511e-14 -4.26581e-14 -4.26581e-14 4.15156e-14 4.15156e-14 3.83843e-14 3.83843e-14 -3.41661e-14 -3.41661e-14 -3.42552e-14 -3.42552e-14 2.81459e-14 2.81459e-14 3.03652e-14 3.03652e-14 -2.32319e-14 -2.32319e-14 -2.67683e-14 -2.67683e-14 1.92324e-14 1.92324e-14 2.349e-14 2.349e-14 -1.5985e-14 -1.5985e-14 -2.05351e-14 -2.05351e-14 1.3353e-14 1.3353e-14 1.78948e-14 1.78948e-14 -1.12221e-14 -1.12221e-14 -1.55513e-14 -1.55513e-14 9.4978e-15 9.4978e-15 1.34819e-14 1.34819e-14 -8.10185e-15 -8.10185e-15 -1.16613e-14 -1.16613e-14 6.97005e-15 6.97005e-15 1.00638e-14 1.00638e-14 -6.04978e-15 -6.04978e-15 -8.66427e-15 -8.66427e-15 5.29809e-15 5.29809e-15 7.43928e-15 7.43928e-15 -4.68004e-15 -4.68004e-15 -6.36741e-15 -6.36741e-15 4.16731e-15 4.16731e-15 5.42949e-15 5.42949e-15 -3.73709e-15 -3.73709e-15 -4.60866e-15 -4.60866e-15 3.37108e-15 3.37108e-15 3.89028e-15 3.89028e-15 -3.05476e-15 -3.05476e-15 -3.26176e-15 -3.26176e-15 2.77673e-15 2.77673e-15 2.71236e-15 2.71236e-15 -2.5282e-15 -2.5282e-15 -2.23292e-15 -2.23292e-15 2.30247e-15 2.30247e-15 1.8156e-15 1.8156e-15 -2.09463e-15 -2.09463e-15 -1.45372e-15 -1.45372e-15 1.90114e-15 1.90114e-15 1.14145e-15 1.14145e-15 -1.71962e-15 -1.71962e-15 -8.73677e-16 -8.73677e-16 1.54854e-15 1.54854e-15 6.4584e-16 6.4584e-16 -1.38701e-15 -1.38701e-15 -4.53809e-16 -4.53809e-16 1.2346e-15 1.2346e-15 2.93786e-16 2.93786e-16 -1.09119e-15 -1.09119e-15 -1.62255e-16 -1.62255e-16 9.56822e-16 9.56822e-16 5.59355e-17 5.59355e-17 -8.31603e-16 -8.31603e-16 2.82313e-17 2.82313e-17 7.15645e-16 7.15645e-16 -9.30921e-17 -9.30921e-17 -6.09005e-16 -6.09005e-16 1.4128e-16 1.4128e-16 5.11662e-16 5.11662e-16 -1.7521e-16 -1.7521e-16 -4.23503e-16 -4.23503e-16 1.97082e-16 1.97082e-16 3.44328e-16 3.44328e-16 -2.08877e-16 -2.08877e-16 -2.73858e-16 -2.73858e-16 2.12368e-16 2.12368e-16 2.1175e-16 2.1175e-16 -2.0913e-16 -2.0913e-16 -1.57615e-16 -1.57615e-16 2.00557e-16 2.00557e-16 1.11025e-16 1.11025e-16 -1.87881e-16 -1.87881e-16 -7.15309e-17 -7.15309e-17 1.72185e-16 1.72185e-16 3.86613e-17 3.86613e-17 -1.54428e-16 -1.54428e-16 -1.19301e-17 -1.19301e-17 1.35451e-16 1.35451e-16 -9.16496e-18 -9.16496e-18 -1.15992e-16 -1.15992e-16 2.51421e-17 2.51421e-17 9.66916e-17 9.66916e-17 -3.6536e-17 -3.6536e-17 -7.80953e-17 -7.80953e-17 4.38956e-17 4.38956e-17 6.06538e-17 6.06538e-17 -4.77802e-17 -4.77802e-17 -4.47233e-17 -4.47233e-17 4.87523e-17 4.87523e-17 3.05652e-17 3.05652e-17 -4.73676e-17 -4.73676e-17 -1.83471e-17 -1.83471e-17 4.41639e-17 4.41639e-17 8.14722e-18 8.14722e-18 -3.96491e-17 -3.96491e-17 3.88927e-20 3.88927e-20 3.42887e-17 3.42887e-17 -6.28868e-18 -6.28868e-18 -2.84966e-17 -2.84966e-17 1.07403e-17 1.07403e-17 2.26268e-17 2.26268e-17 -1.35789e-17 -1.35789e-17 -1.69695e-17 -1.69695e-17 1.50218e-17 1.50218e-17 1.1749e-17 1.1749e-17 -1.53047e-17 -1.53047e-17 -7.12636e-18 -7.12636e-18 1.46685e-17 1.46685e-17 3.20317e-18 3.20317e-18 -1.33478e-17 -1.33478e-17 -2.82415e-20 -2.82415e-20 1.15621e-17 1.15621e-17 -2.39483e-18 -2.39483e-18 -9.50887e-18 -9.50887e-18 4.09945e-18 4.09945e-18 7.35922e-18 7.35922e-18 -5.1477e-18 -5.1477e-18 -5.2549e-1