# vtk DataFile Version 3.0
#This file was generated by the deal.II library on 2020/8/11 at 19:53:01
ASCII
DATASET UNSTRUCTURED_GRID

POINTS 4096 double
0.5 0 0
0.743896 0 0
0.743896 0 0
0.987793 0 0
0.987793 0 0
1.23169 0 0
1.23169 0 0
1.47559 0 0
1.47559 0 0
1.71948 0 0
1.71948 0 0
1.96338 0 0
1.96338 0 0
2.20728 0 0
2.20728 0 0
2.45117 0 0
2.45117 0 0
2.69507 0 0
2.69507 0 0
2.93896 0 0
2.93896 0 0
3.18286 0 0
3.18286 0 0
3.42676 0 0
3.42676 0 0
3.67065 0 0
3.67065 0 0
3.91455 0 0
3.91455 0 0
4.15845 0 0
4.15845 0 0
4.40234 0 0
4.40234 0 0
4.64624 0 0
4.64624 0 0
4.89014 0 0
4.89014 0 0
5.13403 0 0
5.13403 0 0
5.37793 0 0
5.37793 0 0
5.62183 0 0
5.62183 0 0
5.86572 0 0
5.86572 0 0
6.10962 0 0
6.10962 0 0
6.35352 0 0
6.35352 0 0
6.59741 0 0
6.59741 0 0
6.84131 0 0
6.84131 0 0
7.08521 0 0
7.08521 0 0
7.3291 0 0
7.3291 0 0
7.573 0 0
7.573 0 0
7.81689 0 0
7.81689 0 0
8.06079 0 0
8.06079 0 0
8.30469 0 0
8.30469 0 0
8.54858 0 0
8.54858 0 0
8.79248 0 0
8.79248 0 0
9.03638 0 0
9.03638 0 0
9.28027 0 0
9.28027 0 0
9.52417 0 0
9.52417 0 0
9.76807 0 0
9.76807 0 0
10.012 0 0
10.012 0 0
10.2559 0 0
10.2559 0 0
10.4998 0 0
10.4998 0 0
10.7437 0 0
10.7437 0 0
10.9875 0 0
10.9875 0 0
11.2314 0 0
11.2314 0 0
11.4753 0 0
11.4753 0 0
11.7192 0 0
11.7192 0 0
11.9631 0 0
11.9631 0 0
12.207 0 0
12.207 0 0
12.4509 0 0
12.4509 0 0
12.6948 0 0
12.6948 0 0
12.9387 0 0
12.9387 0 0
13.1826 0 0
13.1826 0 0
13.4265 0 0
13.4265 0 0
13.6704 0 0
13.6704 0 0
13.9143 0 0
13.9143 0 0
14.1582 0 0
14.1582 0 0
14.4021 0 0
14.4021 0 0
14.646 0 0
14.646 0 0
14.8899 0 0
14.8899 0 0
15.1338 0 0
15.1338 0 0
15.3777 0 0
15.3777 0 0
15.6216 0 0
15.6216 0 0
15.8655 0 0
15.8655 0 0
16.1094 0 0
16.1094 0 0
16.3533 0 0
16.3533 0 0
16.5972 0 0
16.5972 0 0
16.8411 0 0
16.8411 0 0
17.085 0 0
17.085 0 0
17.3289 0 0
17.3289 0 0
17.5728 0 0
17.5728 0 0
17.8167 0 0
17.8167 0 0
18.0605 0 0
18.0605 0 0
18.3044 0 0
18.3044 0 0
18.5483 0 0
18.5483 0 0
18.7922 0 0
18.7922 0 0
19.0361 0 0
19.0361 0 0
19.28 0 0
19.28 0 0
19.5239 0 0
19.5239 0 0
19.7678 0 0
19.7678 0 0
20.0117 0 0
20.0117 0 0
20.2556 0 0
20.2556 0 0
20.4995 0 0
20.4995 0 0
20.7434 0 0
20.7434 0 0
20.9873 0 0
20.9873 0 0
21.2312 0 0
21.2312 0 0
21.4751 0 0
21.4751 0 0
21.719 0 0
21.719 0 0
21.9629 0 0
21.9629 0 0
22.2068 0 0
22.2068 0 0
22.4507 0 0
22.4507 0 0
22.6946 0 0
22.6946 0 0
22.9385 0 0
22.9385 0 0
23.1824 0 0
23.1824 0 0
23.4263 0 0
23.4263 0 0
23.6702 0 0
23.6702 0 0
23.9141 0 0
23.9141 0 0
24.158 0 0
24.158 0 0
24.4019 0 0
24.4019 0 0
24.6458 0 0
24.6458 0 0
24.8896 0 0
24.8896 0 0
25.1335 0 0
25.1335 0 0
25.3774 0 0
25.3774 0 0
25.6213 0 0
25.6213 0 0
25.8652 0 0
25.8652 0 0
26.1091 0 0
26.1091 0 0
26.353 0 0
26.353 0 0
26.5969 0 0
26.5969 0 0
26.8408 0 0
26.8408 0 0
27.0847 0 0
27.0847 0 0
27.3286 0 0
27.3286 0 0
27.5725 0 0
27.5725 0 0
27.8164 0 0
27.8164 0 0
28.0603 0 0
28.0603 0 0
28.3042 0 0
28.3042 0 0
28.5481 0 0
28.5481 0 0
28.792 0 0
28.792 0 0
29.0359 0 0
29.0359 0 0
29.2798 0 0
29.2798 0 0
29.5237 0 0
29.5237 0 0
29.7676 0 0
29.7676 0 0
30.0115 0 0
30.0115 0 0
30.2554 0 0
30.2554 0 0
30.4993 0 0
30.4993 0 0
30.7432 0 0
30.7432 0 0
30.9871 0 0
30.9871 0 0
31.231 0 0
31.231 0 0
31.4749 0 0
31.4749 0 0
31.7188 0 0
31.7188 0 0
31.9626 0 0
31.9626 0 0
32.2065 0 0
32.2065 0 0
32.4504 0 0
32.4504 0 0
32.6943 0 0
32.6943 0 0
32.9382 0 0
32.9382 0 0
33.1821 0 0
33.1821 0 0
33.426 0 0
33.426 0 0
33.6699 0 0
33.6699 0 0
33.9138 0 0
33.9138 0 0
34.1577 0 0
34.1577 0 0
34.4016 0 0
34.4016 0 0
34.6455 0 0
34.6455 0 0
34.8894 0 0
34.8894 0 0
35.1333 0 0
35.1333 0 0
35.3772 0 0
35.3772 0 0
35.6211 0 0
35.6211 0 0
35.865 0 0
35.865 0 0
36.1089 0 0
36.1089 0 0
36.3528 0 0
36.3528 0 0
36.5967 0 0
36.5967 0 0
36.8406 0 0
36.8406 0 0
37.0845 0 0
37.0845 0 0
37.3284 0 0
37.3284 0 0
37.5723 0 0
37.5723 0 0
37.8162 0 0
37.8162 0 0
38.0601 0 0
38.0601 0 0
38.304 0 0
38.304 0 0
38.5479 0 0
38.5479 0 0
38.7917 0 0
38.7917 0 0
39.0356 0 0
39.0356 0 0
39.2795 0 0
39.2795 0 0
39.5234 0 0
39.5234 0 0
39.7673 0 0
39.7673 0 0
40.0112 0 0
40.0112 0 0
40.2551 0 0
40.2551 0 0
40.499 0 0
40.499 0 0
40.7429 0 0
40.7429 0 0
40.9868 0 0
40.9868 0 0
41.2307 0 0
41.2307 0 0
41.4746 0 0
41.4746 0 0
41.7185 0 0
41.7185 0 0
41.9624 0 0
41.9624 0 0
42.2063 0 0
42.2063 0 0
42.4502 0 0
42.4502 0 0
42.6941 0 0
42.6941 0 0
42.938 0 0
42.938 0 0
43.1819 0 0
43.1819 0 0
43.4258 0 0
43.4258 0 0
43.6697 0 0
43.6697 0 0
43.9136 0 0
43.9136 0 0
44.1575 0 0
44.1575 0 0
44.4014 0 0
44.4014 0 0
44.6453 0 0
44.6453 0 0
44.8892 0 0
44.8892 0 0
45.1331 0 0
45.1331 0 0
45.377 0 0
45.377 0 0
45.6208 0 0
45.6208 0 0
45.8647 0 0
45.8647 0 0
46.1086 0 0
46.1086 0 0
46.3525 0 0
46.3525 0 0
46.5964 0 0
46.5964 0 0
46.8403 0 0
46.8403 0 0
47.0842 0 0
47.0842 0 0
47.3281 0 0
47.3281 0 0
47.572 0 0
47.572 0 0
47.8159 0 0
47.8159 0 0
48.0598 0 0
48.0598 0 0
48.3037 0 0
48.3037 0 0
48.5476 0 0
48.5476 0 0
48.7915 0 0
48.7915 0 0
49.0354 0 0
49.0354 0 0
49.2793 0 0
49.2793 0 0
49.5232 0 0
49.5232 0 0
49.7671 0 0
49.7671 0 0
50.011 0 0
50.011 0 0
50.2549 0 0
50.2549 0 0
50.4988 0 0
50.4988 0 0
50.7427 0 0
50.7427 0 0
50.9866 0 0
50.9866 0 0
51.2305 0 0
51.2305 0 0
51.4744 0 0
51.4744 0 0
51.7183 0 0
51.7183 0 0
51.9622 0 0
51.9622 0 0
52.2061 0 0
52.2061 0 0
52.45 0 0
52.45 0 0
52.6938 0 0
52.6938 0 0
52.9377 0 0
52.9377 0 0
53.1816 0 0
53.1816 0 0
53.4255 0 0
53.4255 0 0
53.6694 0 0
53.6694 0 0
53.9133 0 0
53.9133 0 0
54.1572 0 0
54.1572 0 0
54.4011 0 0
54.4011 0 0
54.645 0 0
54.645 0 0
54.8889 0 0
54.8889 0 0
55.1328 0 0
55.1328 0 0
55.3767 0 0
55.3767 0 0
55.6206 0 0
55.6206 0 0
55.8645 0 0
55.8645 0 0
56.1084 0 0
56.1084 0 0
56.3523 0 0
56.3523 0 0
56.5962 0 0
56.5962 0 0
56.8401 0 0
56.8401 0 0
57.084 0 0
57.084 0 0
57.3279 0 0
57.3279 0 0
57.5718 0 0
57.5718 0 0
57.8157 0 0
57.8157 0 0
58.0596 0 0
58.0596 0 0
58.3035 0 0
58.3035 0 0
58.5474 0 0
58.5474 0 0
58.7913 0 0
58.7913 0 0
59.0352 0 0
59.0352 0 0
59.2791 0 0
59.2791 0 0
59.5229 0 0
59.5229 0 0
59.7668 0 0
59.7668 0 0
60.0107 0 0
60.0107 0 0
60.2546 0 0
60.2546 0 0
60.4985 0 0
60.4985 0 0
60.7424 0 0
60.7424 0 0
60.9863 0 0
60.9863 0 0
61.2302 0 0
61.2302 0 0
61.4741 0 0
61.4741 0 0
61.718 0 0
61.718 0 0
61.9619 0 0
61.9619 0 0
62.2058 0 0
62.2058 0 0
62.4497 0 0
62.4497 0 0
62.6936 0 0
62.6936 0 0
62.9375 0 0
62.9375 0 0
63.1814 0 0
63.1814 0 0
63.4253 0 0
63.4253 0 0
63.6692 0 0
63.6692 0 0
63.9131 0 0
63.9131 0 0
64.157 0 0
64.157 0 0
64.4009 0 0
64.4009 0 0
64.6448 0 0
64.6448 0 0
64.8887 0 0
64.8887 0 0
65.1326 0 0
65.1326 0 0
65.3765 0 0
65.3765 0 0
65.6204 0 0
65.6204 0 0
65.8643 0 0
65.8643 0 0
66.1082 0 0
66.1082 0 0
66.3521 0 0
66.3521 0 0
66.5959 0 0
66.5959 0 0
66.8398 0 0
66.8398 0 0
67.0837 0 0
67.0837 0 0
67.3276 0 0
67.3276 0 0
67.5715 0 0
67.5715 0 0
67.8154 0 0
67.8154 0 0
68.0593 0 0
68.0593 0 0
68.3032 0 0
68.3032 0 0
68.5471 0 0
68.5471 0 0
68.791 0 0
68.791 0 0
69.0349 0 0
69.0349 0 0
69.2788 0 0
69.2788 0 0
69.5227 0 0
69.5227 0 0
69.7666 0 0
69.7666 0 0
70.0105 0 0
70.0105 0 0
70.2544 0 0
70.2544 0 0
70.4983 0 0
70.4983 0 0
70.7422 0 0
70.7422 0 0
70.9861 0 0
70.9861 0 0
71.23 0 0
71.23 0 0
71.4739 0 0
71.4739 0 0
71.7178 0 0
71.7178 0 0
71.9617 0 0
71.9617 0 0
72.2056 0 0
72.2056 0 0
72.4495 0 0
72.4495 0 0
72.6934 0 0
72.6934 0 0
72.9373 0 0
72.9373 0 0
73.1812 0 0
73.1812 0 0
73.425 0 0
73.425 0 0
73.6689 0 0
73.6689 0 0
73.9128 0 0
73.9128 0 0
74.1567 0 0
74.1567 0 0
74.4006 0 0
74.4006 0 0
74.6445 0 0
74.6445 0 0
74.8884 0 0
74.8884 0 0
75.1323 0 0
75.1323 0 0
75.3762 0 0
75.3762 0 0
75.6201 0 0
75.6201 0 0
75.864 0 0
75.864 0 0
76.1079 0 0
76.1079 0 0
76.3518 0 0
76.3518 0 0
76.5957 0 0
76.5957 0 0
76.8396 0 0
76.8396 0 0
77.0835 0 0
77.0835 0 0
77.3274 0 0
77.3274 0 0
77.5713 0 0
77.5713 0 0
77.8152 0 0
77.8152 0 0
78.0591 0 0
78.0591 0 0
78.303 0 0
78.303 0 0
78.5469 0 0
78.5469 0 0
78.7908 0 0
78.7908 0 0
79.0347 0 0
79.0347 0 0
79.2786 0 0
79.2786 0 0
79.5225 0 0
79.5225 0 0
79.7664 0 0
79.7664 0 0
80.0103 0 0
80.0103 0 0
80.2542 0 0
80.2542 0 0
80.498 0 0
80.498 0 0
80.7419 0 0
80.7419 0 0
80.9858 0 0
80.9858 0 0
81.2297 0 0
81.2297 0 0
81.4736 0 0
81.4736 0 0
81.7175 0 0
81.7175 0 0
81.9614 0 0
81.9614 0 0
82.2053 0 0
82.2053 0 0
82.4492 0 0
82.4492 0 0
82.6931 0 0
82.6931 0 0
82.937 0 0
82.937 0 0
83.1809 0 0
83.1809 0 0
83.4248 0 0
83.4248 0 0
83.6687 0 0
83.6687 0 0
83.9126 0 0
83.9126 0 0
84.1565 0 0
84.1565 0 0
84.4004 0 0
84.4004 0 0
84.6443 0 0
84.6443 0 0
84.8882 0 0
84.8882 0 0
85.1321 0 0
85.1321 0 0
85.376 0 0
85.376 0 0
85.6199 0 0
85.6199 0 0
85.8638 0 0
85.8638 0 0
86.1077 0 0
86.1077 0 0
86.3516 0 0
86.3516 0 0
86.5955 0 0
86.5955 0 0
86.8394 0 0
86.8394 0 0
87.0833 0 0
87.0833 0 0
87.3271 0 0
87.3271 0 0
87.571 0 0
87.571 0 0
87.8149 0 0
87.8149 0 0
88.0588 0 0
88.0588 0 0
88.3027 0 0
88.3027 0 0
88.5466 0 0
88.5466 0 0
88.7905 0 0
88.7905 0 0
89.0344 0 0
89.0344 0 0
89.2783 0 0
89.2783 0 0
89.5222 0 0
89.5222 0 0
89.7661 0 0
89.7661 0 0
90.01 0 0
90.01 0 0
90.2539 0 0
90.2539 0 0
90.4978 0 0
90.4978 0 0
90.7417 0 0
90.7417 0 0
90.9856 0 0
90.9856 0 0
91.2295 0 0
91.2295 0 0
91.4734 0 0
91.4734 0 0
91.7173 0 0
91.7173 0 0
91.9612 0 0
91.9612 0 0
92.2051 0 0
92.2051 0 0
92.449 0 0
92.449 0 0
92.6929 0 0
92.6929 0 0
92.9368 0 0
92.9368 0 0
93.1807 0 0
93.1807 0 0
93.4246 0 0
93.4246 0 0
93.6685 0 0
93.6685 0 0
93.9124 0 0
93.9124 0 0
94.1562 0 0
94.1562 0 0
94.4001 0 0
94.4001 0 0
94.644 0 0
94.644 0 0
94.8879 0 0
94.8879 0 0
95.1318 0 0
95.1318 0 0
95.3757 0 0
95.3757 0 0
95.6196 0 0
95.6196 0 0
95.8635 0 0
95.8635 0 0
96.1074 0 0
96.1074 0 0
96.3513 0 0
96.3513 0 0
96.5952 0 0
96.5952 0 0
96.8391 0 0
96.8391 0 0
97.083 0 0
97.083 0 0
97.3269 0 0
97.3269 0 0
97.5708 0 0
97.5708 0 0
97.8147 0 0
97.8147 0 0
98.0586 0 0
98.0586 0 0
98.3025 0 0
98.3025 0 0
98.5464 0 0
98.5464 0 0
98.7903 0 0
98.7903 0 0
99.0342 0 0
99.0342 0 0
99.2781 0 0
99.2781 0 0
99.522 0 0
99.522 0 0
99.7659 0 0
99.7659 0 0
100.01 0 0
100.01 0 0
100.254 0 0
100.254 0 0
100.498 0 0
100.498 0 0
100.741 0 0
100.741 0 0
100.985 0 0
100.985 0 0
101.229 0 0
101.229 0 0
101.473 0 0
[...]
POINT_DATA 4096
SCALARS solution_0 double 1
LOOKUP_TABLE default
0.0163282 -1.46682 -1.46682 0.0444527 0.0444527 0.478553 0.478553 -0.554947 -0.554947 -0.832339 -0.832339 -0.0848927 -0.0848927 0.469294 0.469294 0.477598 0.477598 0.0795046 0.0795046 -0.433802 -0.433802 -0.0531941 -0.0531941 0.18271 0.18271 0.186904 0.186904 0.195411 0.195411 0.150798 0.150798 0.457559 0.457559 0.853669 0.853669 1.29292 1.29292 1.70019 1.70019 2.63122 2.63122 3.71693 3.71693 4.70592 4.70592 5.86612 5.86612 7.14118 7.14118 7.98292 7.98292 8.54954 8.54954 8.76646 8.76646 8.45821 8.45821 7.68776 7.68776 6.64049 6.64049 5.43791 5.43791 4.13321 4.13321 3.00266 3.00266 2.03777 2.03777 1.31227 1.31227 0.748205 0.748205 0.465645 0.465645 0.211292 0.211292 0.110864 0.110864 0.0606043 0.0606043 0.0152541 0.0152541 0.00614033 0.00614033 0.0117786 0.0117786 -0.00651797 -0.00651797 0.00170252 0.00170252 0.00533191 0.00533191 -0.00828138 -0.00828138 0.00732436 0.00732436 -0.00425957 -0.00425957 0.00162313 0.00162313 -0.0006607 -0.0006607 0.0010825 0.0010825 -0.00180764 -0.00180764 0.00196031 0.00196031 -0.00138232 -0.00138232 0.000511801 0.000511801 8.02965e-05 8.02965e-05 -9.46911e-05 -9.46911e-05 -0.000377468 -0.000377468 0.00099984 0.00099984 -0.00143188 -0.00143188 0.00150133 0.00150133 -0.00124025 -0.00124025 0.000814217 0.000814217 -0.000418108 -0.000418108 0.000197733 0.000197733 -0.00021745 -0.00021745 0.000462856 0.000462856 -0.000859087 -0.000859087 0.00129349 0.00129349 -0.00164176 -0.00164176 0.00179904 0.00179904 -0.00171162 -0.00171162 0.00139809 0.00139809 -0.000948211 -0.000948211 0.000495449 0.000495449 -0.000171233 -0.000171233 5.85263e-05 5.85263e-05 -0.000163529 -0.000163529 0.000416868 0.000416868 -0.000702951 -0.000702951 0.000904645 0.000904645 -0.000945053 -0.000945053 0.000810772 0.000810772 -0.00054976 -0.00054976 0.000247412 0.000247412 7.71814e-06 7.71814e-06 -0.000154718 -0.000154718 0.000177022 0.000177022 -0.000101107 -0.000101107 -1.96025e-05 -1.96025e-05 0.000127563 0.000127563 -0.000181548 -0.000181548 0.000167918 0.000167918 -0.000100343 -0.000100343 1.00649e-05 1.00649e-05 6.82875e-05 6.82875e-05 -0.000109631 -0.000109631 0.000105863 0.000105863 -6.61573e-05 -6.61573e-05 1.12248e-05 1.12248e-05 3.55297e-05 3.55297e-05 -5.6461e-05 -5.6461e-05 4.49865e-05 4.49865e-05 -6.47333e-06 -6.47333e-06 -4.49088e-05 -4.49088e-05 9.17509e-05 9.17509e-05 -0.000119264 -0.000119264 0.000119563 0.000119563 -9.33032e-05 -9.33032e-05 4.85538e-05 4.85538e-05 2.3317e-06 2.3317e-06 -4.66464e-05 -4.66464e-05 7.48119e-05 7.48119e-05 -8.25034e-05 -8.25034e-05 7.10434e-05 7.10434e-05 -4.6238e-05 -4.6238e-05 1.62248e-05 1.62248e-05 1.09291e-05 1.09291e-05 -2.9207e-05 -2.9207e-05 3.57617e-05 3.57617e-05 -3.10429e-05 -3.10429e-05 1.8084e-05 1.8084e-05 -1.28664e-06 -1.28664e-06 -1.48967e-05 -1.48967e-05 2.70327e-05 2.70327e-05 -3.3316e-05 -3.3316e-05 3.36582e-05 3.36582e-05 -2.93436e-05 -2.93436e-05 2.24249e-05 2.24249e-05 -1.50628e-05 -1.50628e-05 8.9817e-06 8.9817e-06 -5.1516e-06 -5.1516e-06 3.7241e-06 3.7241e-06 -4.18453e-06 -4.18453e-06 5.63598e-06 5.63598e-06 -7.1173e-06 -7.1173e-06 7.86942e-06 7.86942e-06 -7.49535e-06 -7.49535e-06 5.9963e-06 5.9963e-06 -3.70045e-06 -3.70045e-06 1.12312e-06 1.12312e-06 1.19412e-06 1.19412e-06 -2.82246e-06 -2.82246e-06 3.53399e-06 3.53399e-06 -3.32744e-06 -3.32744e-06 2.39701e-06 2.39701e-06 -1.06176e-06 -1.06176e-06 -3.21309e-07 -3.21309e-07 1.43817e-06 1.43817e-06 -2.07599e-06 -2.07599e-06 2.15011e-06 2.15011e-06 -1.69993e-06 -1.69993e-06 8.60209e-07 8.60209e-07 1.81576e-07 1.81576e-07 -1.23033e-06 -1.23033e-06 2.12137e-06 2.12137e-06 -2.7451e-06 -2.7451e-06 3.05621e-06 3.05621e-06 -3.06877e-06 -3.06877e-06 2.84119e-06 2.84119e-06 -2.45621e-06 -2.45621e-06 2.0009e-06 2.0009e-06 -1.55055e-06 -1.55055e-06 1.15863e-06 1.15863e-06 -8.53389e-07 -8.53389e-07 6.40037e-07 6.40037e-07 -5.06786e-07 -5.06786e-07 4.32465e-07 4.32465e-07 -3.93821e-07 -3.93821e-07 3.7108e-07 3.7108e-07 -3.51071e-07 -3.51071e-07 3.27901e-07 3.27901e-07 -3.0171e-07 -3.0171e-07 2.76291e-07 2.76291e-07 -2.56442e-07 -2.56442e-07 2.4573e-07 2.4573e-07 -2.45145e-07 -2.45145e-07 2.52756e-07 2.52756e-07 -2.64258e-07 -2.64258e-07 2.74118e-07 2.74118e-07 -2.7693e-07 -2.7693e-07 2.68634e-07 2.68634e-07 -2.47326e-07 -2.47326e-07 2.13546e-07 2.13546e-07 -1.70037e-07 -1.70037e-07 1.21095e-07 1.21095e-07 -7.16962e-08 -7.16962e-08 2.65924e-08 2.65924e-08 1.04388e-08 1.04388e-08 -3.70834e-08 -3.70834e-08 5.26613e-08 5.26613e-08 -5.79976e-08 -5.79976e-08 5.50638e-08 5.50638e-08 -4.64894e-08 -4.64894e-08 3.50471e-08 3.50471e-08 -2.32084e-08 -2.32084e-08 1.28287e-08 1.28287e-08 -4.99579e-09 -4.99579e-09 3.5264e-11 3.5264e-11 2.35766e-09 2.35766e-09 -2.90617e-09 -2.90617e-09 2.51261e-09 2.51261e-09 -2.03872e-09 -2.03872e-09 2.14016e-09 2.14016e-09 -3.17369e-09 -3.17369e-09 5.17948e-09 5.17948e-09 -7.92716e-09 -7.92716e-09 1.10052e-08 1.10052e-08 -1.39297e-08 -1.39297e-08 1.62489e-08 1.62489e-08 -1.76264e-08 -1.76264e-08 1.78912e-08 1.78912e-08 -1.70511e-08 -1.70511e-08 1.52742e-08 1.52742e-08 -1.2845e-08 -1.2845e-08 1.01089e-08 1.01089e-08 -7.41335e-09 -7.41335e-09 5.05828e-09 5.05828e-09 -3.26051e-09 -3.26051e-09 2.13622e-09 2.13622e-09 -1.70099e-09 -1.70099e-09 1.8843e-09 1.8843e-09 -2.55382e-09 -2.55382e-09 3.54398e-09 3.54398e-09 -4.68376e-09 -4.68376e-09 5.81962e-09 5.81962e-09 -6.83126e-09 -6.83126e-09 7.63917e-09 7.63917e-09 -8.20471e-09 -8.20471e-09 8.5243e-09 8.5243e-09 -8.62e-09 -8.62e-09 8.52883e-09 8.52883e-09 -8.29278e-09 -8.29278e-09 7.95108e-09 7.95108e-09 -7.53549e-09 -7.53549e-09 7.06856e-09 7.06856e-09 -6.56454e-09 -6.56454e-09 6.03192e-09 6.03192e-09 -5.47682e-09 -5.47682e-09 4.9061e-09 4.9061e-09 -4.32954e-09 -4.32954e-09 3.7608e-09 3.7608e-09 -3.2169e-09 -3.2169e-09 2.71662e-09 2.71662e-09 -2.27809e-09 -2.27809e-09 1.91617e-09 1.91617e-09 -1.64024e-09 -1.64024e-09 1.45259e-09 1.45259e-09 -1.34795e-09 -1.34795e-09 1.31396e-09 1.31396e-09 -1.33273e-09 -1.33273e-09 1.38304e-09 1.38304e-09 -1.44295e-09 -1.44295e-09 1.49233e-09 1.49233e-09 -1.51507e-09 -1.51507e-09 1.50061e-09 1.50061e-09 -1.44471e-09 -1.44471e-09 1.34927e-09 1.34927e-09 -1.22157e-09 -1.22157e-09 1.07269e-09 1.07269e-09 -9.15817e-10 -9.15817e-10 7.64266e-10 7.64266e-10 -6.29803e-10 -6.29803e-10 5.21262e-10 5.21262e-10 -4.43679e-10 -4.43679e-10 3.97998e-10 3.97998e-10 -3.81302e-10 -3.81302e-10 3.87515e-10 3.87515e-10 -4.08427e-10 -4.08427e-10 4.34885e-10 4.34885e-10 -4.57994e-10 -4.57994e-10 4.70171e-10 4.70171e-10 -4.65954e-10 -4.65954e-10 4.42475e-10 4.42475e-10 -3.99589e-10 -3.99589e-10 3.39679e-10 3.39679e-10 -2.67172e-10 -2.67172e-10 1.87878e-10 1.87878e-10 -1.08225e-10 -1.08225e-10 3.44903e-11 3.44903e-11 2.78744e-11 2.78744e-11 -7.47723e-11 -7.47723e-11 1.03794e-10 1.03794e-10 -1.14341e-10 -1.14341e-10 1.07543e-10 1.07543e-10 -8.60088e-11 -8.60088e-11 5.3442e-11 5.3442e-11 -1.41896e-11 -1.41896e-11 -2.72342e-11 -2.72342e-11 6.65897e-11 6.65897e-11 -1.00282e-10 -1.00282e-10 1.25626e-10 1.25626e-10 -1.41002e-10 -1.41002e-10 1.45881e-10 1.45881e-10 -1.40751e-10 -1.40751e-10 1.26957e-10 1.26957e-10 -1.06469e-10 -1.06469e-10 8.16307e-11 8.16307e-11 -5.48987e-11 -5.48987e-11 2.8604e-11 2.8604e-11 -4.75653e-12 -4.75653e-12 -1.50954e-11 -1.50954e-11 2.99451e-11 2.99451e-11 -3.93468e-11 -3.93468e-11 4.33806e-11 4.33806e-11 -4.25745e-11 -4.25745e-11 3.77955e-11 3.77955e-11 -3.01249e-11 -3.01249e-11 2.07324e-11 2.07324e-11 -1.07586e-11 -1.07586e-11 1.21764e-12 1.21764e-12 7.07432e-12 7.07432e-12 -1.35431e-11 -1.35431e-11 1.78713e-11 1.78713e-11 -1.99882e-11 -1.99882e-11 2.00384e-11 2.00384e-11 -1.83356e-11 -1.83356e-11 1.53079e-11 1.53079e-11 -1.14411e-11 -1.14411e-11 7.22513e-12 7.22513e-12 -3.1084e-12 -3.1084e-12 -5.37624e-13 -5.37624e-13 3.44093e-12 3.44093e-12 -5.43929e-12 -5.43929e-12 6.47895e-12 6.47895e-12 -6.60362e-12 -6.60362e-12 5.93618e-12 5.93618e-12 -4.65596e-12 -4.65596e-12 2.97421e-12 2.97421e-12 -1.11028e-12 -1.11028e-12 -7.29474e-13 -7.29474e-13 2.36851e-12 2.36851e-12 -3.67189e-12 -3.67189e-12 4.55265e-12 4.55265e-12 -4.973e-12 -4.973e-12 4.94104e-12 4.94104e-12 -4.50396e-12 -4.50396e-12 3.73871e-12 3.73871e-12 -2.74147e-12 -2.74147e-12 1.6169e-12 1.6169e-12 -4.68188e-13 -4.68188e-13 -6.11407e-13 -6.11407e-13 1.54504e-12 1.54504e-12 -2.27648e-12 -2.27648e-12 2.772e-12 2.772e-12 -3.02023e-12 -3.02023e-12 3.03015e-12 3.03015e-12 -2.82777e-12 -2.82777e-12 2.45188e-12 2.45188e-12 -1.94937e-12 -1.94937e-12 1.3706e-12 1.3706e-12 -7.65135e-13 -7.65135e-13 1.78111e-13 1.78111e-13 3.52493e-13 3.52493e-13 -7.9769e-13 -7.9769e-13 1.13836e-12 1.13836e-12 -1.36527e-12 -1.36527e-12 1.47833e-12 1.47833e-12 -1.48531e-12 -1.48531e-12 1.40018e-12 1.40018e-12 -1.24117e-12 -1.24117e-12 1.02892e-12 1.02892e-12 -7.8463e-13 -7.8463e-13 5.28539e-13 5.28539e-13 -2.7865e-13 -2.7865e-13 4.98372e-14 4.98372e-14 1.46692e-13 1.46692e-13 -3.0359e-13 -3.0359e-13 4.17265e-13 4.17265e-13 -4.8752e-13 -4.8752e-13 5.17026e-13 5.17026e-13 -5.10672e-13 -5.10672e-13 4.74875e-13 4.74875e-13 -4.16894e-13 -4.16894e-13 3.44202e-13 3.44202e-13 -2.63951e-13 -2.63951e-13 1.82545e-13 1.82545e-13 -1.05344e-13 -1.05344e-13 3.64815e-14 3.64815e-14 2.11939e-14 2.11939e-14 -6.60845e-14 -6.60845e-14 9.77281e-14 9.77281e-14 -1.16626e-13 -1.16626e-13 1.24035e-13 1.24035e-13 -1.21747e-13 -1.21747e-13 1.11869e-13 1.11869e-13 -9.66218e-14 -9.66218e-14 7.81691e-14 7.81691e-14 -5.84792e-14 -5.84792e-14 3.92258e-14 3.92258e-14 -2.17277e-14 -2.17277e-14 6.92273e-15 6.92273e-15 4.62674e-15 4.62674e-15 -1.27038e-14 -1.27038e-14 1.73888e-14 1.73888e-14 -1.89989e-14 -1.89989e-14 1.8023e-14 1.8023e-14 -1.50557e-14 -1.50557e-14 1.07363e-14 1.07363e-14 -5.69553e-15 -5.69553e-15 5.11465e-16 5.11465e-16 4.32238e-15 4.32238e-15 -8.41829e-15 -8.41829e-15 1.15046e-14 1.15046e-14 -1.34264e-14 -1.34264e-14 1.41383e-14 1.41383e-14 -1.36908e-14 -1.36908e-14 1.2213e-14 1.2213e-14 -9.892e-15 -9.892e-15 6.95252e-15 6.95252e-15 -3.63666e-15 -3.63666e-15 1.85752e-16 1.85752e-16 3.17516e-15 3.17516e-15 -6.24951e-15 -6.24951e-15 8.87795e-15 8.87795e-15 -1.09436e-14 -1.09436e-14 1.23739e-14 1.23739e-14 -1.314e-14 -1.314e-14 1.32529e-14 1.32529e-14 -1.27584e-14 -1.27584e-14 1.17308e-14 1.17308e-14 -1.02651e-14 -1.02651e-14 8.46987e-15 8.46987e-15 -6.45956e-15 -6.45956e-15 4.34801e-15 4.34801e-15 -2.24245e-15 -2.24245e-15 2.3874e-16 2.3874e-16 1.58223e-15 1.58223e-15 -3.15693e-15 -3.15693e-15 4.44042e-15 4.44042e-15 -5.40639e-15 -5.40639e-15 6.04634e-15 6.04634e-15 -6.36792e-15 -6.36792e-15 6.39265e-15 6.39265e-15 -6.1533e-15 -6.1533e-15 5.69092e-15 5.69092e-15 -5.05193e-15 -5.05193e-15 4.28525e-15 4.28525e-15 -3.43967e-15 -3.43967e-15 2.56158e-15 2.56158e-15 -1.69304e-15 -1.69304e-15 8.70402e-16 8.70402e-16 -1.2325e-16 -1.2325e-16 -5.26079e-16 -5.26079e-16 1.06263e-15 1.06263e-15 -1.47856e-15 -1.47856e-15 1.7726e-15 1.7726e-15 -1.94919e-15 -1.94919e-15 2.01755e-15 2.01755e-15 -1.99056e-15 -1.99056e-15 1.88369e-15 1.88369e-15 -1.71383e-15 -1.71383e-15 1.49835e-15 1.49835e-15 -1.25417e-15 -1.25417e-15 9.97023e-16 9.97023e-16 -7.40835e-16 -7.40835e-16 4.97344e-16 4.97344e-16 -2.75834e-16 -2.75834e-16 8.3048e-17 8.3048e-17 7.6762e-17 7.6762e-17 -2.01669e-16 -2.01669e-16 2.91806e-16 2.91806e-16 -3.49043e-16 -3.49043e-16 3.76615e-16 3.76615e-16 -3.7874e-16 -3.7874e-16 3.60241e-16 3.60241e-16 -3.26198e-16 -3.26198e-16 2.81634e-16 2.81634e-16 -2.31254e-16 -2.31254e-16 1.79245e-16 1.79245e-16 -1.29127e-16 -1.29127e-16 8.36731e-17 8.36731e-17 -4.48724e-17 -4.48724e-17 1.395e-17 1.395e-17 8.57809e-18 8.57809e-18 -2.28177e-17 -2.28177e-17 2.93883e-17 2.93883e-17 -2.93018e-17 -2.93018e-17 2.38389e-17 2.38389e-17 -1.44279e-17 -1.44279e-17 2.53445e-18 2.53445e-18 1.04345e-17 1.04345e-17 -2.32088e-17 -2.32088e-17 3.47135e-17 3.47135e-17 -4.41074e-17 -4.41074e-17 5.08015e-17 5.08015e-17 -5.44613e-17 -5.44613e-17 5.49925e-17 5.49925e-17 -5.25152e-17 -5.25152e-17 4.73296e-17 4.73296e-17 -3.98751e-17 -3.98751e-17 3.06872e-17 3.06872e-17 -2.03546e-17 -2.03546e-17 9.47889e-18 9.47889e-18 1.36145e-18 1.36145e-18 -1.1641e-17 -1.1641e-17 2.09108e-17 2.09108e-17 -2.8814e-17 -2.8814e-17 3.50956e-17 3.50956e-17 -3.96042e-17 -3.96042e-17 4.22888e-17 4.22888e-17 -4.31905e-17 -4.31905e-17 4.243e-17 4.243e-17 -4.01931e-17 -4.01931e-17 3.6714e-17 3.6714e-17 -3.22583e-17 -3.22583e-17 2.71069e-17 2.71069e-17 -2.15409e-17 -2.15409e-17 1.58278e-17 1.58278e-17 -1.02112e-17 -1.02112e-17 4.90212e-18 4.90212e-18 -7.3029e-20 -7.3029e-20 -4.14488e-18 -4.14488e-18 7.66269e-18 7.66269e-18 -1.04324e-17 -1.04324e-17 1.24436e-17 1.24436e-17 -1.37195e-17 -1.37195e-17 1.43108e-17 1.43108e-17 -1.42901e-17 -1.42901e-17 1.37457e-17 1.37457e-17 -1.27755e-17 -1.27755e-17 1.1481e-17 1.1481e-17 -9.96283e-18 -9.96283e-18 8.31601e-18 8.31601e-18 -6.62675e-18 -6.62675e-18 4.96993e-18 4.96993e-18 -3.40743e-18 -3.40743e-18 1.98743e-18 1.98743e-18 -7.44296e-19 -7.44296e-19 -3.00736e-19 -3.00736e-19 1.13848e-18 1.13848e-18 -1.7703e-18 -1.7703e-18 2.20634e-18 2.20634e-18 -2.46362e-18 -2.46362e-18 2.56418e-18 2.56418e-18 -2.53323e-18 -2.53323e-18 2.39742e-18 2.39742e-18 -2.18344e-18 -2.18344e-18 1.9167e-18 1.9167e-18 -1.62042e-18 -1.62042e-18 1.31491e-18 1.31491e-18 -1.01708e-18 -1.01708e-18 7.40283e-19 7.40283e-19 -4.94267e-19 -4.94267e-19 2.85361e-19 2.85361e-19 -1.1678e-19 -1.1678e-19 -1.09732e-20 -1.09732e-20 9.96414e-20 9.96414e-20 -1.52714e-19 -1.52714e-19 1.74932e-19 1.74932e-19 -1.71812e-19 -1.71812e-19 1.49223e-19 1.49223e-19 -1.13007e-19 -1.13007e-19 6.86791e-20 6.86791e-20 -2.11898e-20 -2.11898e-20 -2.52411e-20 -2.52411e-20 6.72232e-20 6.72232e-20 -1.02235e-19 -1.02235e-19 1.28613e-19 1.28613e-19 -1.45494e-19 -1.45494e-19 1.52729e-19 1.52729e-19 -1.50775e-19 -1.50775e-19 1.4057e-19 1.4057e-19 -1.23406e-19 -1.23406e-19 1.00803e-19 1.00803e-19 -7.43936e-20 -7.43936e-20 4.58172e-20 4.58172e-20 -1.66339e-20 -1.66339e-20 -1.17465e-20 -1.17465e-20 3.81152e-20 3.81152e-20 -6.14982e-20 -6.14982e-20 8.11727e-20 8.11727e-20 -9.66684e-20 -9.66684e-20 1.07756e-19 1.07756e-19 -1.14428e-19 -1.14428e-19 1.16867e-19 1.16867e-19 -1.15414e-19 -1.15414e-19 1.1053e-19 1.1053e-19 -1.02763e-19 -1.02763e-19 9.27109e-20 9.27109e-20 -8.09867e-20 -8.09867e-20 6.81938e-20 6.81938e-20 -5.49003e-20 -5.49003e-20 4.16203e-20 4.16203e-20 -2.88006e-20 -2.88006e-20 1.68115e-20 1.68115e-20 -5.94281e-21 -5.94281e-21 -3.5963e-21 -3.5963e-21 1.1674e-20 1.1674e-20 -1.823e-20 -1.823e-20 2.32671e-20 2.32671e-20 -2.68418e-20 -2.68418e-20 2.90547e-20 2.90547e-20 -3.00389e-20 -3.00389e-20 2.99511e-20 2.99511e-20 -2.89613e-20 -2.89613e-20 2.72446e-20 2.72446e-20 -2.49738e-20 -2.49738e-20 2.23134e-20 2.23134e-20 -1.94146e-20 -1.94146e-20 1.64122e-20 1.64122e-20 -1.3422e-20 -1.3422e-20 1.054e-20 1.054e-20 -7.8419e-21 -7.8419e-21 5.38406e-21 5.38406e-21 -3.20459e-21 -3.20459e-21 1.32524e-21 1.32524e-21 2.46603e-22 2.46603e-22 -1.51556e-21 -1.51556e-21 2.49596e-21 2.49596e-21 -3.20956e-21 -3.20956e-21 3.68338e-21 3.68338e-21 -3.94773e-21 -3.94773e-21 4.03449e-21 4.03449e-21 -3.97564e-21 -3.97564e-21 3.80207e-21 3.80207e-21 -3.54267e-21 -3.54267e-21 3.22362e-21 3.22362e-21 -2.86799e-21 -2.86799e-21 2.49548e-21 2.49548e-21 -2.12239e-21 -2.12239e-21 1.76167e-21 1.76167e-21 -1.42314e-21 -1.42314e-21 1.11376e-21 1.11376e-21 -8.3796e-22 -8.3796e-22 5.98008e-22 5.98008e-22 -3.94364e-22 -3.94364e-22 2.26057e-22 2.26057e-22 -9.10218e-23 -9.10218e-23 -1.3588e-23 -1.3588e-23 9.11237e-23 9.11237e-23 -1.45203e-22 -1.45203e-22 1.79516e-22 1.79516e-22 -1.97666e-22 -1.97666e-22 2.03048e-22 2.03048e-22 -1.98769e-22 -1.98769e-22 1.87587e-22 1.87587e-22 -1.71884e-22 -1.71884e-22 1.53654e-22 1.53654e-22 -1.34515e-22 -1.34515e-22 1.15727e-22 1.15727e-22 -9.82232e-23 -9.82232e-23 8.26452e-23 8.26452e-23 -6.9383e-23 -6.9383e-23 5.86149e-23 5.86149e-23 -5.03472e-23 -5.03472e-23 4.44518e-23 4.44518e-23 -4.0701e-23 -4.0701e-23 3.87984e-23 3.87984e-23 -3.84063e-23 -3.84063e-23 3.91688e-23 3.91688e-23 -4.07312e-23 -4.07312e-23 4.27553e-23 4.27553e-23 -4.49311e-23 -4.49311e-23 4.69859e-23 4.69859e-23 -4.86896e-23 -4.86896e-23 4.98582e-23 4.98582e-23 -5.03548e-23 -5.03548e-23 5.00886e-23 5.00886e-23 -4.9013e-23 -4.9013e-23 4.71216e-23 4.71216e-23 -4.44443e-23 -4.44443e-23 4.10418e-23 4.10418e-23 -3.70005e-23 -3.70005e-23 3.24267e-23 3.24267e-23 -2.74408e-23 -2.74408e-23 2.21718e-23 2.21718e-23 -1.67524e-23 -1.67524e-23 1.13135e-23 1.13135e-23 -5.98092e-24 -5.98092e-24 8.70684e-25 8.70684e-25 3.91337e-24 3.91337e-24 -8.2822e-24 -8.2822e-24 1.21632e-23 1.21632e-23 -1.55013e-23 -1.55013e-23 1.82592e-23 1.82592e-23 -2.04174e-23 -2.04174e-23 2.1973e-23 2.1973e-23 -2.29391e-23 -2.29391e-23 2.33428e-23 2.33428e-23 -2.32233e-23 -2.32233e-23 2.26299e-23 2.26299e-23 -2.162e-23 -2.162e-23 2.02564e-23 2.02564e-23 -1.86051e-23 -1.86051e-23 1.67335e-23 1.67335e-23 -1.47082e-23 -1.47082e-23 1.25931e-23 1.25931e-23 -1.0448e-23 -1.0448e-23 8.32741e-24 8.32741e-24 -6.27942e-24 -6.27942e-24 4.34502e-24 4.34502e-24 -2.55777e-24 -2.55777e-24 9.43593e-25 9.43593e-25 4.79126e-25 4.79126e-25 -1.69921e-24 -1.69921e-24 2.71219e-24 2.71219e-24 -3.51969e-24 -3.51969e-24 4.12866e-24 4.12866e-24 -4.55051e-24 -4.55051e-24 4.80031e-24 4.80031e-24 -4.89584e-24 -4.89584e-24 4.85678e-24 4.85678e-24 -4.70387e-24 -4.70387e-24 4.45816e-24 4.45816e-24 -4.1404e-24 -4.1404e-24 3.77038e-24 3.77038e-24 -3.36653e-24 -3.36653e-24 2.94555e-24 2.94555e-24 -2.52212e-24 -2.52212e-24 2.10872e-24 2.10872e-24 -1.71563e-24 -1.71563e-24 1.35087e-24 1.35087e-24 -1.02029e-24 -1.02029e-24 7.27734e-25 7.27734e-25 -4.75203e-25 -4.75203e-25 2.63076e-25 2.63076e-25 -9.03555e-26 -9.03555e-26 -4.50901e-26 -4.50901e-26 1.46268e-25 1.46268e-25 -2.16822e-25 -2.16822e-25 2.60797e-25 2.60797e-25 -2.82441e-25 -2.82441e-25 2.86013e-25 2.86013e-25 -2.75631e-25 -2.75631e-25 2.55149e-25 2.55149e-25 -2.28054e-25 -2.28054e-25 1.97402e-25 1.97402e-25 -1.65778e-25 -1.65778e-25 1.35272e-25 1.35272e-25 -1.07489e-25 -1.07489e-25 8.35664e-26 8.35664e-26 -6.4212e-26 -6.4212e-26 4.97505e-26 4.97505e-26 -4.01772e-26 -4.01772e-26 3.52166e-26 3.52166e-26 -3.43821e-26 -3.43821e-26 3.70352e-26 3.70352e-26 -4.24408e-26 -4.24408e-26 4.98175e-26 4.98175e-26 -5.83832e-26 -5.83832e-26 6.73919e-26 6.73919e-26 -7.61645e-26 -7.61645e-26 8.41115e-26 8.41115e-26 -9.07488e-26 -9.07488e-26 9.57064e-26 9.57064e-26 -9.8731e-26 -9.8731e-26 9.96835e-26 9.96835e-26 -9.85315e-26 -9.85315e-26 9.53388e-26 9.53388e-26 -9.0252e-26 -9.0252e-26 8.34851e-26 8.34851e-26 -7.53037e-26 -7.53037e-26 6.60091e-26 6.60091e-26 -5.5922e-26 -5.5922e-26 4.53689e-26 4.53689e-26 -3.46682e-26 -3.46682e-26 2.41196e-26 2.41196e-26 -1.39948e-26 -1.39948e-26 4.53003e-27 4.53003e-27 4.07845e-27 4.07845e-27 -1.16774e-26 -1.16774e-26 1.81579e-26 1.81579e-26 -2.34541e-26 -2.34541e-26 2.75418e-26 2.75418e-26 -3.04343e-26 -3.04343e-26 3.21788e-26 3.21788e-26 -3.28511e-26 -3.28511e-26 3.25502e-26 3.25502e-26 -3.13926e-26 -3.13926e-26 2.95073e-26 2.95073e-26 -2.70297e-26 -2.70297e-26 2.40976e-26 2.40976e-26 -2.08458e-26 -2.08458e-26 1.74032e-26 1.74032e-26 -1.38889e-26 -1.38889e-26 1.04102e-26 1.04102e-26 -7.06027e-27 -7.06027e-27 3.91761e-27 3.91761e-27 -1.04499e-27 -1.04499e-27 -1.51034e-27 -1.51034e-27 3.7162e-27 3.7162e-27 -5.55457e-27 -5.55457e-27 7.02041e-27 7.02041e-27 -8.12011e-27 -8.12011e-27 8.86994e-27 8.86994e-27 -9.29422e-27 -9.29422e-27 9.4236e-27 9.4236e-27 -9.29333e-27 -9.29333e-27 8.94159e-27 8.94159e-27 -8.40794e-27 -8.40794e-27 7.73199e-27 7.73199e-27 -6.95219e-27 -6.95219e-27 6.1048e-27 6.1048e-27 -5.22313e-27 -5.22313e-27 4.33691e-27 4.33691e-27 -3.47191e-27 -3.47191e-27 2.64966e-27 2.64966e-27 -1.8874e-27 -1.8874e-27 1.19815e-27 1.19815e-27 -5.90903e-28 -5.90903e-28 7.09037e-29 7.09037e-29 3.59989e-28 3.59989e-28 -7.02878e-28 -7.02878e-28 9.61381e-28 9.61381e-28 -1.14116e-27 -1.14116e-27 1.24946e-27 1.24946e-27 -1.29465e-27 -1.29465e-27 1.28582e-27 1.28582e-27 -1.23239e-27 -1.23239e-27 1.14375e-27 1.14375e-27 -1.02901e-27 -1.02901e-27 8.96701e-28 8.96701e-28 -7.54646e-28 -7.54646e-28 6.09778e-28 6.09778e-28 -4.68063e-28 -4.68063e-28 3.34449e-28 3.34449e-28 -2.12855e-28 -2.12855e-28 1.06194e-