# vtk DataFile Version 3.0
#This file was generated by the deal.II library on 2020/8/11 at 19:53:29
ASCII
DATASET UNSTRUCTURED_GRID

POINTS 4096 double
0.5 0 0
0.743896 0 0
0.743896 0 0
0.987793 0 0
0.987793 0 0
1.23169 0 0
1.23169 0 0
1.47559 0 0
1.47559 0 0
1.71948 0 0
1.71948 0 0
1.96338 0 0
1.96338 0 0
2.20728 0 0
2.20728 0 0
2.45117 0 0
2.45117 0 0
2.69507 0 0
2.69507 0 0
2.93896 0 0
2.93896 0 0
3.18286 0 0
3.18286 0 0
3.42676 0 0
3.42676 0 0
3.67065 0 0
3.67065 0 0
3.91455 0 0
3.91455 0 0
4.15845 0 0
4.15845 0 0
4.40234 0 0
4.40234 0 0
4.64624 0 0
4.64624 0 0
4.89014 0 0
4.89014 0 0
5.13403 0 0
5.13403 0 0
5.37793 0 0
5.37793 0 0
5.62183 0 0
5.62183 0 0
5.86572 0 0
5.86572 0 0
6.10962 0 0
6.10962 0 0
6.35352 0 0
6.35352 0 0
6.59741 0 0
6.59741 0 0
6.84131 0 0
6.84131 0 0
7.08521 0 0
7.08521 0 0
7.3291 0 0
7.3291 0 0
7.573 0 0
7.573 0 0
7.81689 0 0
7.81689 0 0
8.06079 0 0
8.06079 0 0
8.30469 0 0
8.30469 0 0
8.54858 0 0
8.54858 0 0
8.79248 0 0
8.79248 0 0
9.03638 0 0
9.03638 0 0
9.28027 0 0
9.28027 0 0
9.52417 0 0
9.52417 0 0
9.76807 0 0
9.76807 0 0
10.012 0 0
10.012 0 0
10.2559 0 0
10.2559 0 0
10.4998 0 0
10.4998 0 0
10.7437 0 0
10.7437 0 0
10.9875 0 0
10.9875 0 0
11.2314 0 0
11.2314 0 0
11.4753 0 0
11.4753 0 0
11.7192 0 0
11.7192 0 0
11.9631 0 0
11.9631 0 0
12.207 0 0
12.207 0 0
12.4509 0 0
12.4509 0 0
12.6948 0 0
12.6948 0 0
12.9387 0 0
12.9387 0 0
13.1826 0 0
13.1826 0 0
13.4265 0 0
13.4265 0 0
13.6704 0 0
13.6704 0 0
13.9143 0 0
13.9143 0 0
14.1582 0 0
14.1582 0 0
14.4021 0 0
14.4021 0 0
14.646 0 0
14.646 0 0
14.8899 0 0
14.8899 0 0
15.1338 0 0
15.1338 0 0
15.3777 0 0
15.3777 0 0
15.6216 0 0
15.6216 0 0
15.8655 0 0
15.8655 0 0
16.1094 0 0
16.1094 0 0
16.3533 0 0
16.3533 0 0
16.5972 0 0
16.5972 0 0
16.8411 0 0
16.8411 0 0
17.085 0 0
17.085 0 0
17.3289 0 0
17.3289 0 0
17.5728 0 0
17.5728 0 0
17.8167 0 0
17.8167 0 0
18.0605 0 0
18.0605 0 0
18.3044 0 0
18.3044 0 0
18.5483 0 0
18.5483 0 0
18.7922 0 0
18.7922 0 0
19.0361 0 0
19.0361 0 0
19.28 0 0
19.28 0 0
19.5239 0 0
19.5239 0 0
19.7678 0 0
19.7678 0 0
20.0117 0 0
20.0117 0 0
20.2556 0 0
20.2556 0 0
20.4995 0 0
20.4995 0 0
20.7434 0 0
20.7434 0 0
20.9873 0 0
20.9873 0 0
21.2312 0 0
21.2312 0 0
21.4751 0 0
21.4751 0 0
21.719 0 0
21.719 0 0
21.9629 0 0
21.9629 0 0
22.2068 0 0
22.2068 0 0
22.4507 0 0
22.4507 0 0
22.6946 0 0
22.6946 0 0
22.9385 0 0
22.9385 0 0
23.1824 0 0
23.1824 0 0
23.4263 0 0
23.4263 0 0
23.6702 0 0
23.6702 0 0
23.9141 0 0
23.9141 0 0
24.158 0 0
24.158 0 0
24.4019 0 0
24.4019 0 0
24.6458 0 0
24.6458 0 0
24.8896 0 0
24.8896 0 0
25.1335 0 0
25.1335 0 0
25.3774 0 0
25.3774 0 0
25.6213 0 0
25.6213 0 0
25.8652 0 0
25.8652 0 0
26.1091 0 0
26.1091 0 0
26.353 0 0
26.353 0 0
26.5969 0 0
26.5969 0 0
26.8408 0 0
26.8408 0 0
27.0847 0 0
27.0847 0 0
27.3286 0 0
27.3286 0 0
27.5725 0 0
27.5725 0 0
27.8164 0 0
27.8164 0 0
28.0603 0 0
28.0603 0 0
28.3042 0 0
28.3042 0 0
28.5481 0 0
28.5481 0 0
28.792 0 0
28.792 0 0
29.0359 0 0
29.0359 0 0
29.2798 0 0
29.2798 0 0
29.5237 0 0
29.5237 0 0
29.7676 0 0
29.7676 0 0
30.0115 0 0
30.0115 0 0
30.2554 0 0
30.2554 0 0
30.4993 0 0
30.4993 0 0
30.7432 0 0
30.7432 0 0
30.9871 0 0
30.9871 0 0
31.231 0 0
31.231 0 0
31.4749 0 0
31.4749 0 0
31.7188 0 0
31.7188 0 0
31.9626 0 0
31.9626 0 0
32.2065 0 0
32.2065 0 0
32.4504 0 0
32.4504 0 0
32.6943 0 0
32.6943 0 0
32.9382 0 0
32.9382 0 0
33.1821 0 0
33.1821 0 0
33.426 0 0
33.426 0 0
33.6699 0 0
33.6699 0 0
33.9138 0 0
33.9138 0 0
34.1577 0 0
34.1577 0 0
34.4016 0 0
34.4016 0 0
34.6455 0 0
34.6455 0 0
34.8894 0 0
34.8894 0 0
35.1333 0 0
35.1333 0 0
35.3772 0 0
35.3772 0 0
35.6211 0 0
35.6211 0 0
35.865 0 0
35.865 0 0
36.1089 0 0
36.1089 0 0
36.3528 0 0
36.3528 0 0
36.5967 0 0
36.5967 0 0
36.8406 0 0
36.8406 0 0
37.0845 0 0
37.0845 0 0
37.3284 0 0
37.3284 0 0
37.5723 0 0
37.5723 0 0
37.8162 0 0
37.8162 0 0
38.0601 0 0
38.0601 0 0
38.304 0 0
38.304 0 0
38.5479 0 0
38.5479 0 0
38.7917 0 0
38.7917 0 0
39.0356 0 0
39.0356 0 0
39.2795 0 0
39.2795 0 0
39.5234 0 0
39.5234 0 0
39.7673 0 0
39.7673 0 0
40.0112 0 0
40.0112 0 0
40.2551 0 0
40.2551 0 0
40.499 0 0
40.499 0 0
40.7429 0 0
40.7429 0 0
40.9868 0 0
40.9868 0 0
41.2307 0 0
41.2307 0 0
41.4746 0 0
41.4746 0 0
41.7185 0 0
41.7185 0 0
41.9624 0 0
41.9624 0 0
42.2063 0 0
42.2063 0 0
42.4502 0 0
42.4502 0 0
42.6941 0 0
42.6941 0 0
42.938 0 0
42.938 0 0
43.1819 0 0
43.1819 0 0
43.4258 0 0
43.4258 0 0
43.6697 0 0
43.6697 0 0
43.9136 0 0
43.9136 0 0
44.1575 0 0
44.1575 0 0
44.4014 0 0
44.4014 0 0
44.6453 0 0
44.6453 0 0
44.8892 0 0
44.8892 0 0
45.1331 0 0
45.1331 0 0
45.377 0 0
45.377 0 0
45.6208 0 0
45.6208 0 0
45.8647 0 0
45.8647 0 0
46.1086 0 0
46.1086 0 0
46.3525 0 0
46.3525 0 0
46.5964 0 0
46.5964 0 0
46.8403 0 0
46.8403 0 0
47.0842 0 0
47.0842 0 0
47.3281 0 0
47.3281 0 0
47.572 0 0
47.572 0 0
47.8159 0 0
47.8159 0 0
48.0598 0 0
48.0598 0 0
48.3037 0 0
48.3037 0 0
48.5476 0 0
48.5476 0 0
48.7915 0 0
48.7915 0 0
49.0354 0 0
49.0354 0 0
49.2793 0 0
49.2793 0 0
49.5232 0 0
49.5232 0 0
49.7671 0 0
49.7671 0 0
50.011 0 0
50.011 0 0
50.2549 0 0
50.2549 0 0
50.4988 0 0
50.4988 0 0
50.7427 0 0
50.7427 0 0
50.9866 0 0
50.9866 0 0
51.2305 0 0
51.2305 0 0
51.4744 0 0
51.4744 0 0
51.7183 0 0
51.7183 0 0
51.9622 0 0
51.9622 0 0
52.2061 0 0
52.2061 0 0
52.45 0 0
52.45 0 0
52.6938 0 0
52.6938 0 0
52.9377 0 0
52.9377 0 0
53.1816 0 0
53.1816 0 0
53.4255 0 0
53.4255 0 0
53.6694 0 0
53.6694 0 0
53.9133 0 0
53.9133 0 0
54.1572 0 0
54.1572 0 0
54.4011 0 0
54.4011 0 0
54.645 0 0
54.645 0 0
54.8889 0 0
54.8889 0 0
55.1328 0 0
55.1328 0 0
55.3767 0 0
55.3767 0 0
55.6206 0 0
55.6206 0 0
55.8645 0 0
55.8645 0 0
56.1084 0 0
56.1084 0 0
56.3523 0 0
56.3523 0 0
56.5962 0 0
56.5962 0 0
56.8401 0 0
56.8401 0 0
57.084 0 0
57.084 0 0
57.3279 0 0
57.3279 0 0
57.5718 0 0
57.5718 0 0
57.8157 0 0
57.8157 0 0
58.0596 0 0
58.0596 0 0
58.3035 0 0
58.3035 0 0
58.5474 0 0
58.5474 0 0
58.7913 0 0
58.7913 0 0
59.0352 0 0
59.0352 0 0
59.2791 0 0
59.2791 0 0
59.5229 0 0
59.5229 0 0
59.7668 0 0
59.7668 0 0
60.0107 0 0
60.0107 0 0
60.2546 0 0
60.2546 0 0
60.4985 0 0
60.4985 0 0
60.7424 0 0
60.7424 0 0
60.9863 0 0
60.9863 0 0
61.2302 0 0
61.2302 0 0
61.4741 0 0
61.4741 0 0
61.718 0 0
61.718 0 0
61.9619 0 0
61.9619 0 0
62.2058 0 0
62.2058 0 0
62.4497 0 0
62.4497 0 0
62.6936 0 0
62.6936 0 0
62.9375 0 0
62.9375 0 0
63.1814 0 0
63.1814 0 0
63.4253 0 0
63.4253 0 0
63.6692 0 0
63.6692 0 0
63.9131 0 0
63.9131 0 0
64.157 0 0
64.157 0 0
64.4009 0 0
64.4009 0 0
64.6448 0 0
64.6448 0 0
64.8887 0 0
64.8887 0 0
65.1326 0 0
65.1326 0 0
65.3765 0 0
65.3765 0 0
65.6204 0 0
65.6204 0 0
65.8643 0 0
65.8643 0 0
66.1082 0 0
66.1082 0 0
66.3521 0 0
66.3521 0 0
66.5959 0 0
66.5959 0 0
66.8398 0 0
66.8398 0 0
67.0837 0 0
67.0837 0 0
67.3276 0 0
67.3276 0 0
67.5715 0 0
67.5715 0 0
67.8154 0 0
67.8154 0 0
68.0593 0 0
68.0593 0 0
68.3032 0 0
68.3032 0 0
68.5471 0 0
68.5471 0 0
68.791 0 0
68.791 0 0
69.0349 0 0
69.0349 0 0
69.2788 0 0
69.2788 0 0
69.5227 0 0
69.5227 0 0
69.7666 0 0
69.7666 0 0
70.0105 0 0
70.0105 0 0
70.2544 0 0
70.2544 0 0
70.4983 0 0
70.4983 0 0
70.7422 0 0
70.7422 0 0
70.9861 0 0
70.9861 0 0
71.23 0 0
71.23 0 0
71.4739 0 0
71.4739 0 0
71.7178 0 0
71.7178 0 0
71.9617 0 0
71.9617 0 0
72.2056 0 0
72.2056 0 0
72.4495 0 0
72.4495 0 0
72.6934 0 0
72.6934 0 0
72.9373 0 0
72.9373 0 0
73.1812 0 0
73.1812 0 0
73.425 0 0
73.425 0 0
73.6689 0 0
73.6689 0 0
73.9128 0 0
73.9128 0 0
74.1567 0 0
74.1567 0 0
74.4006 0 0
74.4006 0 0
74.6445 0 0
74.6445 0 0
74.8884 0 0
74.8884 0 0
75.1323 0 0
75.1323 0 0
75.3762 0 0
75.3762 0 0
75.6201 0 0
75.6201 0 0
75.864 0 0
75.864 0 0
76.1079 0 0
76.1079 0 0
76.3518 0 0
76.3518 0 0
76.5957 0 0
76.5957 0 0
76.8396 0 0
76.8396 0 0
77.0835 0 0
77.0835 0 0
77.3274 0 0
77.3274 0 0
77.5713 0 0
77.5713 0 0
77.8152 0 0
77.8152 0 0
78.0591 0 0
78.0591 0 0
78.303 0 0
78.303 0 0
78.5469 0 0
78.5469 0 0
78.7908 0 0
78.7908 0 0
79.0347 0 0
79.0347 0 0
79.2786 0 0
79.2786 0 0
79.5225 0 0
79.5225 0 0
79.7664 0 0
79.7664 0 0
80.0103 0 0
80.0103 0 0
80.2542 0 0
80.2542 0 0
80.498 0 0
80.498 0 0
80.7419 0 0
80.7419 0 0
80.9858 0 0
80.9858 0 0
81.2297 0 0
81.2297 0 0
81.4736 0 0
81.4736 0 0
81.7175 0 0
81.7175 0 0
81.9614 0 0
81.9614 0 0
82.2053 0 0
82.2053 0 0
82.4492 0 0
82.4492 0 0
82.6931 0 0
82.6931 0 0
82.937 0 0
82.937 0 0
83.1809 0 0
83.1809 0 0
83.4248 0 0
83.4248 0 0
83.6687 0 0
83.6687 0 0
83.9126 0 0
83.9126 0 0
84.1565 0 0
84.1565 0 0
84.4004 0 0
84.4004 0 0
84.6443 0 0
84.6443 0 0
84.8882 0 0
84.8882 0 0
85.1321 0 0
85.1321 0 0
85.376 0 0
85.376 0 0
85.6199 0 0
85.6199 0 0
85.8638 0 0
85.8638 0 0
86.1077 0 0
86.1077 0 0
86.3516 0 0
86.3516 0 0
86.5955 0 0
86.5955 0 0
86.8394 0 0
86.8394 0 0
87.0833 0 0
87.0833 0 0
87.3271 0 0
87.3271 0 0
87.571 0 0
87.571 0 0
87.8149 0 0
87.8149 0 0
88.0588 0 0
88.0588 0 0
88.3027 0 0
88.3027 0 0
88.5466 0 0
88.5466 0 0
88.7905 0 0
88.7905 0 0
89.0344 0 0
89.0344 0 0
89.2783 0 0
89.2783 0 0
89.5222 0 0
89.5222 0 0
89.7661 0 0
89.7661 0 0
90.01 0 0
90.01 0 0
90.2539 0 0
90.2539 0 0
90.4978 0 0
90.4978 0 0
90.7417 0 0
90.7417 0 0
90.9856 0 0
90.9856 0 0
91.2295 0 0
91.2295 0 0
91.4734 0 0
91.4734 0 0
91.7173 0 0
91.7173 0 0
91.9612 0 0
91.9612 0 0
92.2051 0 0
92.2051 0 0
92.449 0 0
92.449 0 0
92.6929 0 0
92.6929 0 0
92.9368 0 0
92.9368 0 0
93.1807 0 0
93.1807 0 0
93.4246 0 0
93.4246 0 0
93.6685 0 0
93.6685 0 0
93.9124 0 0
93.9124 0 0
94.1562 0 0
94.1562 0 0
94.4001 0 0
94.4001 0 0
94.644 0 0
94.644 0 0
94.8879 0 0
94.8879 0 0
95.1318 0 0
95.1318 0 0
95.3757 0 0
95.3757 0 0
95.6196 0 0
95.6196 0 0
95.8635 0 0
95.8635 0 0
96.1074 0 0
96.1074 0 0
96.3513 0 0
96.3513 0 0
96.5952 0 0
96.5952 0 0
96.8391 0 0
96.8391 0 0
97.083 0 0
97.083 0 0
97.3269 0 0
97.3269 0 0
97.5708 0 0
97.5708 0 0
97.8147 0 0
97.8147 0 0
98.0586 0 0
98.0586 0 0
98.3025 0 0
98.3025 0 0
98.5464 0 0
98.5464 0 0
98.7903 0 0
98.7903 0 0
99.0342 0 0
99.0342 0 0
99.2781 0 0
99.2781 0 0
99.522 0 0
99.522 0 0
99.7659 0 0
99.7659 0 0
100.01 0 0
100.01 0 0
100.254 0 0
100.254 0 0
100.498 0 0
100.498 0 0
100.741 0 0
100.741 0 0
100.985 0 0
100.985 0 0
101.229 0 0
101.229 0 0
101.473 0 0
[...]
POINT_DATA 4096
SCALARS solution_0 double 1
LOOKUP_TABLE default
7.50845e-13 -491.467 -491.467 -193.662 -193.662 -126.398 -126.398 -93.4319 -93.4319 -73.1162 -73.1162 -59.1252 -59.1252 -48.8414 -48.8414 -40.9551 -40.9551 -34.7254 -34.7254 -29.6964 -29.6964 -25.569 -25.569 -22.1374 -22.1374 -19.2545 -19.2545 -16.8121 -16.8121 -14.7281 -14.7281 -12.9393 -12.9393 -11.3962 -11.3962 -10.0592 -10.0592 -8.89641 -8.89641 -7.88165 -7.88165 -6.99348 -6.99348 -6.21399 -6.21399 -5.52815 -5.52815 -4.92322 -4.92322 -4.38831 -4.38831 -3.91399 -3.91399 -3.49211 -3.49211 -3.11555 -3.11555 -2.77829 -2.77829 -2.47542 -2.47542 -2.20341 -2.20341 -1.96027 -1.96027 -1.74552 -1.74552 -1.55961 -1.55961 -1.40278 -1.40278 -1.27338 -1.27338 -1.16659 -1.16659 -1.07448 -1.07448 -0.988392 -0.988392 -0.903224 -0.903224 -0.821023 -0.821023 -0.750564 -0.750564 -0.700908 -0.700908 -0.671808 -0.671808 -0.648791 -0.648791 -0.610394 -0.610394 -0.546299 -0.546299 -0.472333 -0.472333 -0.424267 -0.424267 -0.427005 -0.427005 -0.462328 -0.462328 -0.471069 -0.471069 -0.401936 -0.401936 -0.270259 -0.270259 -0.163983 -0.163983 -0.172311 -0.172311 -0.292753 -0.292753 -0.412791 -0.412791 -0.402793 -0.402793 -0.241562 -0.241562 -0.0477202 -0.0477202 0.0241494 0.0241494 -0.0751365 -0.0751365 -0.248547 -0.248547 -0.34605 -0.34605 -0.293065 -0.293065 -0.137055 -0.137055 0.00827765 0.00827765 0.0519773 0.0519773 -0.0213633 -0.0213633 -0.152495 -0.152495 -0.247493 -0.247493 -0.236811 -0.236811 -0.123705 -0.123705 0.0146778 0.0146778 0.0827291 0.0827291 0.0378719 0.0378719 -0.0797049 -0.0797049 -0.180076 -0.180076 -0.189194 -0.189194 -0.0984005 -0.0984005 0.0324016 0.0324016 0.116964 0.116964 0.103024 0.103024 0.0101439 0.0101439 -0.0845266 -0.0845266 -0.104103 -0.104103 -0.0276114 -0.0276114 0.0998062 0.0998062 0.203663 0.203663 0.230973 0.230973 0.184299 0.184299 0.124594 0.124594 0.137973 0.137973 0.280137 0.280137 0.540036 0.540036 0.857692 0.857692 1.17863 1.17863 1.49243 1.49243 1.82952 1.82952 2.23359 2.23359 2.73144 2.73144 3.30851 3.30851 3.90145 3.90145 4.42235 4.42235 4.80233 4.80233 5.01552 5.01552 5.06314 5.06314 4.94459 4.94459 4.65193 4.65193 4.18631 4.18631 3.57164 3.57164 2.8581 2.8581 2.1205 2.1205 1.44316 1.44316 0.888758 0.888758 0.476894 0.476894 0.19458 0.19458 0.0210234 0.0210234 -0.0622387 -0.0622387 -0.076908 -0.076908 -0.0517794 -0.0517794 -0.0169817 -0.0169817 0.00612316 0.00612316 0.0111498 0.0111498 0.00478917 0.00478917 -0.00151827 -0.00151827 -0.00126689 -0.00126689 0.00256342 0.00256342 0.00293252 0.00293252 -0.00129179 -0.00129179 -0.00413738 -0.00413738 -0.00167553 -0.00167553 0.00254416 0.00254416 0.00307497 0.00307497 -0.00017357 -0.00017357 -0.00262232 -0.00262232 -0.00136473 -0.00136473 0.00137267 0.00137267 0.00178577 0.00178577 -0.000184972 -0.000184972 -0.00143685 -0.00143685 -0.000568828 -0.000568828 0.000762925 0.000762925 0.000853121 0.000853121 -9.97703e-05 -9.97703e-05 -0.000793746 -0.000793746 -0.000370206 -0.000370206 0.000555496 0.000555496 0.000595153 0.000595153 -0.000271847 -0.000271847 -0.000608008 -0.000608008 1.96709e-05 1.96709e-05 0.000482493 0.000482493 0.00017357 0.00017357 -0.000300824 -0.000300824 -0.000306962 -0.000306962 0.000132059 0.000132059 0.00038427 0.00038427 -1.77164e-05 -1.77164e-05 -0.00040442 -0.00040442 -3.46833e-05 -3.46833e-05 0.000366246 0.000366246 4.65108e-05 4.65108e-05 -0.000279588 -0.000279588 -5.11205e-05 -5.11205e-05 0.000170552 0.000170552 7.26448e-05 7.26448e-05 -7.38385e-05 -7.38385e-05 -0.00011277 -0.00011277 1.61294e-05 1.61294e-05 0.000153568 0.000153568 -2.69821e-06 -2.69821e-06 -0.000173232 -0.000173232 1.75047e-05 1.75047e-05 0.000162278 0.000162278 -3.6331e-05 -3.6331e-05 -0.00012852 -0.00012852 4.24417e-05 4.24417e-05 8.91002e-05 8.91002e-05 -3.35045e-05 -3.35045e-05 -5.81287e-05 -5.81287e-05 1.71029e-05 1.71029e-05 4.01258e-05 4.01258e-05 -1.55521e-06 -1.55521e-06 -3.2282e-05 -3.2282e-05 -9.43351e-06 -9.43351e-06 3.04684e-05 3.04684e-05 1.57357e-05 1.57357e-05 -3.24441e-05 -3.24441e-05 -1.73998e-05 -1.73998e-05 3.67244e-05 3.67244e-05 1.36608e-05 1.36608e-05 -4.05787e-05 -4.05787e-05 -4.79457e-06 -4.79457e-06 4.05146e-05 4.05146e-05 -6.37009e-06 -6.37009e-06 -3.47419e-05 -3.47419e-05 1.55877e-05 1.55877e-05 2.46271e-05 2.46271e-05 -1.98569e-05 -1.98569e-05 -1.35743e-05 -1.35743e-05 1.89174e-05 1.89174e-05 4.68921e-06 4.68921e-06 -1.45663e-05 -1.45663e-05 5.73356e-07 5.73356e-07 9.08913e-06 9.08913e-06 -2.23742e-06 -2.23742e-06 -4.34596e-06 -4.34596e-06 1.16456e-06 1.16456e-06 1.61651e-06 1.61651e-06 1.23202e-06 1.23202e-06 -1.43736e-06 -1.43736e-06 -3.21982e-06 -3.21982e-06 3.27241e-06 3.27241e-06 3.42124e-06 3.42124e-06 -5.63534e-06 -5.63534e-06 -1.58016e-06 -1.58016e-06 6.9484e-06 6.9484e-06 -1.38352e-06 -1.38352e-06 -6.47918e-06 -6.47918e-06 4.1555e-06 4.1555e-06 4.52264e-06 4.52264e-06 -5.87118e-06 -5.87118e-06 -1.83524e-06 -1.83524e-06 6.30333e-06 6.30333e-06 -9.33153e-07 -9.33153e-07 -5.52417e-06 -5.52417e-06 3.30312e-06 3.30312e-06 3.67907e-06 3.67907e-06 -4.77865e-06 -4.77865e-06 -1.12966e-06 -1.12966e-06 4.91744e-06 4.91744e-06 -1.40154e-06 -1.40154e-06 -3.68748e-06 -3.68748e-06 3.08007e-06 3.08007e-06 1.65354e-06 1.65354e-06 -3.46073e-06 -3.46073e-06 3.16148e-07 3.16148e-07 2.73972e-06 2.73972e-06 -1.58286e-06 -1.58286e-06 -1.514e-06 -1.514e-06 2.01627e-06 2.01627e-06 3.25139e-07 3.25139e-07 -1.8383e-06 -1.8383e-06 5.75202e-07 5.75202e-07 1.30666e-06 1.30666e-06 -1.12806e-06 -1.12806e-06 -5.85153e-07 -5.85153e-07 1.29352e-06 1.29352e-06 -1.68256e-07 -1.68256e-07 -1.04593e-06 -1.04593e-06 7.29914e-07 7.29914e-07 4.91127e-07 4.91127e-07 -9.06892e-07 -9.06892e-07 1.10172e-07 1.10172e-07 6.91713e-07 6.91713e-07 -4.90844e-07 -4.90844e-07 -2.78592e-07 -2.78592e-07 5.51099e-07 5.51099e-07 -8.77565e-08 -8.77565e-08 -3.84453e-07 -3.84453e-07 2.75153e-07 2.75153e-07 1.5577e-07 1.5577e-07 -2.96386e-07 -2.96386e-07 2.64658e-08 2.64658e-08 2.26352e-07 2.26352e-07 -1.36704e-07 -1.36704e-07 -1.20393e-07 -1.20393e-07 1.82071e-07 1.82071e-07 4.53265e-09 4.53265e-09 -1.63709e-07 -1.63709e-07 9.37746e-08 9.37746e-08 8.76442e-08 8.76442e-08 -1.38379e-07 -1.38379e-07 1.23171e-08 1.23171e-08 1.12306e-07 1.12306e-07 -8.48311e-08 -8.48311e-08 -3.92333e-08 -3.92333e-08 9.76382e-08 9.76382e-08 -3.24238e-08 -3.24238e-08 -5.90715e-08 -5.90715e-08 6.58436e-08 6.58436e-08 4.40853e-09 4.40853e-09 -5.61416e-08 -5.61416e-08 3.3441e-08 3.3441e-08 2.29427e-08 2.29427e-08 -4.16442e-08 -4.16442e-08 9.01205e-09 9.01205e-09 2.6932e-08 2.6932e-08 -2.44258e-08 -2.44258e-08 -5.32183e-09 -5.32183e-09 2.22088e-08 2.22088e-08 -9.65152e-09 -9.65152e-09 -1.11938e-08 -1.11938e-08 1.40328e-08 1.40328e-08 6.57684e-10 6.57684e-10 -1.15738e-08 -1.15738e-08 5.9943e-09 5.9943e-09 6.47226e-09 6.47226e-09 -9.23451e-09 -9.23451e-09 -7.98032e-11 -7.98032e-11 8.71379e-09 8.71379e-09 -6.10391e-09 -6.10391e-09 -3.7254e-09 -3.7254e-09 8.57229e-09 8.57229e-09 -3.2302e-09 -3.2302e-09 -5.29189e-09 -5.29189e-09 7.14595e-09 7.14595e-09 -1.03099e-09 -1.03099e-09 -5.44641e-09 -5.44641e-09 5.28224e-09 5.28224e-09 4.22909e-10 4.22909e-10 -4.83251e-09 -4.83251e-09 3.52711e-09 3.52711e-09 1.21331e-09 1.21331e-09 -3.90922e-09 -3.90922e-09 2.14149e-09 2.14149e-09 1.4832e-09 1.4832e-09 -2.93714e-09 -2.93714e-09 1.1691e-09 1.1691e-09 1.40209e-09 1.40209e-09 -2.04187e-09 -2.04187e-09 5.33641e-10 5.33641e-10 1.14109e-09 1.14109e-09 -1.28475e-09 -1.28475e-09 1.30673e-10 1.30673e-10 8.41346e-10 8.41346e-10 -7.00731e-10 -7.00731e-10 -1.16901e-10 -1.16901e-10 5.8744e-10 5.8744e-10 -3.02376e-10 -3.02376e-10 -2.48503e-10 -2.48503e-10 4.02871e-10 4.02871e-10 -7.2343e-11 -7.2343e-11 -2.84646e-10 -2.84646e-10 2.70189e-10 2.70189e-10 3.43503e-11 3.43503e-11 -2.48755e-10 -2.48755e-10 1.61602e-10 1.61602e-10 7.36797e-11 7.36797e-11 -1.74551e-10 -1.74551e-10 6.1632e-11 6.1632e-11 9.17355e-11 9.17355e-11 -9.82089e-11 -9.82089e-11 -2.73941e-11 -2.73941e-11 1.12242e-10 1.12242e-10 -4.56663e-11 -4.56663e-11 -9.35016e-11 -9.35016e-11 1.37282e-10 1.37282e-10 -2.54374e-11 -2.54374e-11 -1.26834e-10 -1.26834e-10 1.57064e-10 1.57064e-10 -3.03478e-11 -3.03478e-11 -1.26947e-10 -1.26947e-10 1.61159e-10 1.61159e-10 -4.52071e-11 -4.52071e-11 -1.03251e-10 -1.03251e-10 1.45804e-10 1.45804e-10 -5.548e-11 -5.548e-11 -7.04923e-11 -7.04923e-11 1.15646e-10 1.15646e-10 -5.33539e-11 -5.33539e-11 -4.24867e-11 -4.24867e-11 8.09029e-11 8.09029e-11 -3.95925e-11 -3.95925e-11 -2.70058e-11 -2.70058e-11 5.21042e-11 5.21042e-11 -2.11785e-11 -2.11785e-11 -2.39229e-11 -2.39229e-11 3.51919e-11 3.51919e-11 -6.32446e-12 -6.32446e-12 -2.73265e-11 -2.73265e-11 2.95682e-11 2.95682e-11 2.74491e-13 2.74491e-13 -3.0179e-11 -3.0179e-11 2.99853e-11 2.99853e-11 -7.76056e-13 -7.76056e-13 -2.85175e-11 -2.85175e-11 3.06637e-11 3.06637e-11 -5.3893e-12 -5.3893e-12 -2.26787e-11 -2.26787e-11 2.86097e-11 2.86097e-11 -9.47748e-12 -9.47748e-12 -1.54389e-11 -1.54389e-11 2.41185e-11 2.41185e-11 -1.12789e-11 -1.12789e-11 -9.23458e-12 -9.23458e-12 1.89486e-11 1.89486e-11 -1.12289e-11 -1.12289e-11 -4.78592e-12 -4.78592e-12 1.43202e-11 1.43202e-11 -1.03579e-11 -1.03579e-11 -1.64447e-12 -1.64447e-12 1.03639e-11 1.03639e-11 -9.09604e-12 -9.09604e-12 5.97606e-13 5.97606e-13 6.85478e-12 6.85478e-12 -7.35157e-12 -7.35157e-12 1.84181e-12 1.84181e-12 3.94898e-12 3.94898e-12 -5.22217e-12 -5.22217e-12 1.94277e-12 1.94277e-12 2.09373e-12 2.09373e-12 -3.27403e-12 -3.27403e-12 1.24371e-12 1.24371e-12 1.43329e-12 1.43329e-12 -2.11457e-12 -2.11457e-12 4.85918e-13 4.85918e-13 1.52408e-12 1.52408e-12 -1.85321e-12 -1.85321e-12 2.51727e-13 2.51727e-13 1.66268e-12 1.66268e-12 -2.05913e-12 -2.05913e-12 5.84929e-13 5.84929e-13 1.41253e-12 1.41253e-12 -2.18398e-12 -2.18398e-12 1.12197e-12 1.12197e-12 8.00334e-13 8.00334e-13 -1.96306e-12 -1.96306e-12 1.48963e-12 1.48963e-12 1.05149e-13 1.05149e-13 -1.4628e-12 -1.4628e-12 1.55022e-12 1.55022e-12 -4.39916e-13 -4.39916e-13 -8.74371e-13 -8.74371e-13 1.36219e-12 1.36219e-12 -7.57343e-13 -7.57343e-13 -3.38136e-13 -3.38136e-13 1.0322e-12 1.0322e-12 -8.6132e-13 -8.6132e-13 7.83482e-14 7.83482e-14 6.4527e-13 6.4527e-13 -7.86535e-13 -7.86535e-13 3.36271e-13 3.36271e-13 2.79061e-13 2.79061e-13 -5.86162e-13 -5.86162e-13 4.20631e-13 4.20631e-13 9.15115e-15 9.15115e-15 -3.44303e-13 -3.44303e-13 3.65936e-13 3.65936e-13 -1.26091e-13 -1.26091e-13 -1.46217e-13 -1.46217e-13 2.49262e-13 2.49262e-13 -1.49562e-13 -1.49562e-13 -3.14433e-14 -3.14433e-14 1.42069e-13 1.42069e-13 -1.19345e-13 -1.19345e-13 1.46052e-14 1.46052e-14 7.25503e-14 7.25503e-14 -8.11975e-14 -8.11975e-14 2.58894e-14 2.58894e-14 3.34319e-14 3.34319e-14 -4.96287e-14 -4.96287e-14 2.24636e-14 2.24636e-14 1.31001e-14 1.31001e-14 -2.46867e-14 -2.46867e-14 9.5555e-15 9.5555e-15 9.68007e-15 9.68007e-15 -1.10391e-14 -1.10391e-14 -5.6607e-15 -5.6607e-15 2.07476e-14 2.07476e-14 -1.53734e-14 -1.53734e-14 -9.52287e-15 -9.52287e-15 3.31406e-14 3.31406e-14 -3.30779e-14 -3.30779e-14 5.46525e-15 5.46525e-15 3.04569e-14 3.04569e-14 -4.71164e-14 -4.71164e-14 3.0478e-14 3.0478e-14 8.63601e-15 8.63601e-15 -4.25065e-14 -4.25065e-14 4.71925e-14 4.71925e-14 -1.9917e-14 -1.9917e-14 -1.95992e-14 -1.95992e-14 4.40449e-14 4.40449e-14 -3.79833e-14 -3.79833e-14 7.71306e-15 7.71306e-15 2.47039e-14 2.47039e-14 -3.77727e-14 -3.77727e-14 2.50101e-14 2.50101e-14 2.25204e-15 2.25204e-15 -2.44184e-14 -2.44184e-14 2.76789e-14 2.76789e-14 -1.25017e-14 -1.25017e-14 -8.51163e-15 -8.51163e-15 2.06414e-14 2.06414e-14 -1.71704e-14 -1.71704e-14 2.77132e-15 2.77132e-15 1.12275e-14 1.12275e-14 -1.54075e-14 -1.54075e-14 8.35357e-15 8.35357e-15 3.5024e-15 3.5024e-15 -1.13293e-14 -1.13293e-14 1.02325e-14 1.02325e-14 -2.07194e-15 -2.07194e-15 -6.6726e-15 -6.6726e-15 9.89209e-15 9.89209e-15 -5.95551e-15 -5.95551e-15 -1.7176e-15 -1.7176e-15 7.55231e-15 7.55231e-15 -7.80625e-15 -7.80625e-15 2.85613e-15 2.85613e-15 3.52016e-15 3.52016e-15 -7.01649e-15 -7.01649e-15 5.67076e-15 5.67076e-15 -8.62324e-16 -8.62324e-16 -3.97343e-15 -3.97343e-15 5.78981e-15 5.78981e-15 -3.81317e-15 -3.81317e-15 -2.60249e-16 -2.60249e-16 3.65131e-15 3.65131e-15 -4.37507e-15 -4.37507e-15 2.36036e-15 2.36036e-15 7.79009e-16 7.79009e-16 -2.98145e-15 -2.98145e-15 3.06555e-15 3.06555e-15 -1.31462e-15 -1.31462e-15 -9.26352e-16 -9.26352e-16 2.23735e-15 2.23735e-15 -1.99504e-15 -1.99504e-15 6.1547e-16 6.1547e-16 8.75305e-16 8.75305e-16 -1.56708e-15 -1.56708e-15 1.19459e-15 1.19459e-15 -1.8186e-16 -1.8186e-16 -7.39827e-16 -7.39827e-16 1.03183e-15 1.03183e-15 -6.39781e-16 -6.39781e-16 -6.35169e-17 -6.35169e-17 5.85901e-16 5.85901e-16 -6.40215e-16 -6.40215e-16 2.83082e-16 2.83082e-16 1.83713e-16 1.83713e-16 -4.45591e-16 -4.45591e-16 3.7371e-16 3.7371e-16 -7.26716e-17 -7.26716e-17 -2.25761e-16 -2.25761e-16 3.30187e-16 3.30187e-16 -2.03625e-16 -2.03625e-16 -3.7999e-17 -3.7999e-17 2.22951e-16 2.22951e-16 -2.4046e-16 -2.4046e-16 1.01395e-16 1.01395e-16 8.60988e-17 8.60988e-17 -1.97875e-16 -1.97875e-16 1.73207e-16 1.73207e-16 -4.3733e-17 -4.3733e-17 -9.83869e-17 -9.83869e-17 1.64858e-16 1.64858e-16 -1.24365e-16 -1.24365e-16 1.39567e-17 1.39567e-17 9.21878e-17 9.21878e-17 -1.31834e-16 -1.31834e-16 8.98977e-17 8.98977e-17 -9.61226e-19 -9.61226e-19 -7.76485e-17 -7.76485e-17 1.02212e-16 1.02212e-16 -6.58884e-17 -6.58884e-17 -2.59085e-18 -2.59085e-18 6.03822e-17 6.03822e-17 -7.6808e-17 -7.6808e-17 4.8776e-17 4.8776e-17 1.6907e-18 1.6907e-18 -4.35901e-17 -4.35901e-17 5.55022e-17 5.55022e-17 -3.58224e-17 -3.58224e-17 3.64989e-19 3.64989e-19 2.92046e-17 2.92046e-17 -3.81521e-17 -3.81521e-17 2.54316e-17 2.54316e-17 -1.78359e-18 -1.78359e-18 -1.82209e-17 -1.82209e-17 2.47357e-17 2.47357e-17 -1.70204e-17 -1.70204e-17 2.05478e-18 2.05478e-18 1.07474e-17 1.07474e-17 -1.50882e-17 -1.50882e-17 1.0526e-17 1.0526e-17 -1.48064e-18 -1.48064e-18 -6.19483e-18 -6.19483e-18 8.69918e-18 8.69918e-18 -5.90354e-18 -5.90354e-18 6.06355e-19 6.06355e-19 3.66619e-18 3.66619e-18 -4.78461e-18 -4.78461e-18 2.89526e-18 2.89526e-18 1.75682e-19 1.75682e-19 -2.34455e-18 -2.34455e-18 2.53502e-18 2.53502e-18 -1.09157e-18 -1.09157e-18 -7.24754e-19 -7.24754e-19 1.68161e-18 1.68161e-18 -1.32067e-18 -1.32067e-18 9.89953e-20 9.89953e-20 1.04941e-18 1.04941e-18 -1.37029e-18 -1.37029e-18 7.34466e-19 7.34466e-19 3.63153e-19 3.63153e-19 -1.18477e-18 -1.18477e-18 1.23025e-18 1.23025e-18 -5.17309e-19 -5.17309e-19 -4.7948e-19 -4.7948e-19 1.15353e-18 1.15353e-18 -1.13416e-18 -1.13416e-18 4.79542e-19 4.79542e-19 3.96335e-19 3.96335e-19 -9.91252e-19 -9.91252e-19 1.00403e-18 1.00403e-18 -4.81164e-19 -4.81164e-19 -2.44441e-19 -2.44441e-19 7.65107e-19 7.65107e-19 -8.27005e-19 -8.27005e-19 4.49387e-19 4.49387e-19 1.17139e-19 1.17139e-19 -5.51423e-19 -5.51423e-19 6.40939e-19 6.40939e-19 -3.81342e-19 -3.81342e-19 -4.67053e-20 -4.67053e-20 3.95798e-19 3.95798e-19 -4.90641e-19 -4.90641e-19 3.11619e-19 3.11619e-19 1.3915e-20 1.3915e-20 -2.96413e-19 -2.96413e-19 3.9103e-19 3.9103e-19 -2.68068e-19 -2.68068e-19 1.49214e-20 1.49214e-20 2.22923e-19 2.22923e-19 -3.23738e-19 -3.23738e-19 2.49354e-19 2.49354e-19 -5.50434e-20 -5.50434e-20 -1.49255e-19 -1.49255e-19 2.60629e-19 2.60629e-19 -2.33806e-19 -2.33806e-19 9.675e-20 9.675e-20 7.19819e-20 7.19819e-20 -1.879e-19 -1.879e-19 2.02329e-19 2.02329e-19 -1.21194e-19 -1.21194e-19 -5.13294e-21 -5.13294e-21 1.11926e-19 1.11926e-19 -1.52759e-19 -1.52759e-19 1.18672e-19 1.18672e-19 -3.67082e-20 -3.67082e-20 -4.8291e-20 -4.8291e-20 9.73773e-20 9.73773e-20 -9.45722e-20 -9.45722e-20 5.03613e-20 5.03613e-20 7.75515e-21 7.75515e-21 -5.09885e-20 -5.09885e-20 6.27753e-20 6.27753e-20 -4.41255e-20 -4.41255e-20 9.78076e-21 9.78076e-21 2.1307e-20 2.1307e-20 -3.56233e-20 -3.56233e-20 3.029e-20 3.029e-20 -1.22188e-20 -1.22188e-20 -7.19333e-21 -7.19333e-21 1.84189e-20 1.84189e-20 -1.79566e-20 -1.79566e-20 8.7355e-21 8.7355e-21 2.67342e-21 2.67342e-21 -1.0045e-20 -1.0045e-20 1.05023e-20 1.05023e-20 -5.25997e-21 -5.25997e-21 -1.8083e-21 -1.8083e-21 6.64584e-21 6.64584e-21 -7.10139e-21 -7.10139e-21 3.66678e-21 3.66678e-21 1.24937e-21 1.24937e-21 -4.87828e-21 -4.87828e-21 5.55066e-21 5.55066e-21 -3.35052e-21 -3.35052e-21 -2.17331e-22 -2.17331e-22 3.20674e-21 3.20674e-21 -4.25933e-21 -4.25933e-21 3.16917e-21 3.16917e-21 -7.88793e-22 -7.88793e-22 -1.56063e-21 -1.56063e-21 2.8006e-21 2.8006e-21 -2.56269e-21 -2.56269e-21 1.2322e-21 1.2322e-21 3.74131e-22 3.74131e-22 -1.47325e-21 -1.47325e-21 1.67474e-21 1.67474e-21 -1.08338e-21 -1.08338e-21 1.47637e-22 1.47637e-22 6.22946e-22 6.22946e-22 -9.09993e-22 -9.09993e-22 6.94548e-22 6.94548e-22 -1.99895e-22 -1.99895e-22 -2.68587e-22 -2.68587e-22 4.87809e-22 4.87809e-22 -4.05826e-22 -4.05826e-22 1.2894e-22 1.2894e-22 1.64431e-22 1.64431e-22 -3.2546e-22 -3.2546e-22 2.99834e-22 2.99834e-22 -1.33005e-22 -1.33005e-22 -7.30282e-23 -7.30282e-23 2.19468e-22 2.19468e-22 -2.54671e-22 -2.54671e-22 1.85562e-22 1.85562e-22 -5.96762e-23 -5.96762e-23 -6.56522e-23 -6.56522e-23 1.48894e-22 1.48894e-22 -1.74569e-22 -1.74569e-22 1.48888e-22 1.48888e-22 -8.87285e-23 -8.87285e-23 1.24901e-23 1.24901e-23 6.32206e-23 6.32206e-23 -1.22781e-22 -1.22781e-22 1.51155e-22 1.51155e-22 -1.37133e-22 -1.37133e-22 7.94981e-23 7.94981e-23 8.06835e-24 8.06835e-24 -9.79994e-23 -9.79994e-23 1.57489e-22 1.57489e-22 -1.61892e-22 -1.61892e-22 1.06604e-22 1.06604e-22 -1.10648e-23 -1.10648e-23 -8.79607e-23 -8.79607e-23 1.51419e-22 1.51419e-22 -1.54636e-22 -1.54636e-22 9.7928e-23 9.7928e-23 -6.22909e-24 -6.22909e-24 -8.20472e-23 -8.20472e-23 1.31712e-22 1.31712e-22 -1.25474e-22 -1.25474e-22 7.01829e-23 7.01829e-23 7.64653e-24 7.64653e-24 -7.44306e-23 -7.44306e-23 1.04175e-22 1.04175e-22 -8.869e-23 -8.869e-23 3.93088e-23 3.93088e-23 1.98484e-23 1.98484e-23 -6.33629e-23 -6.33629e-23 7.53254e-23 7.53254e-23 -5.48976e-23 -5.48976e-23 1.48282e-23 1.48282e-23 2.56221e-23 2.56221e-23 -4.96364e-23 -4.96364e-23 4.96051e-23 4.96051e-23 -2.90752e-23 -2.90752e-23 -3.15988e-25 -3.15988e-25 2.49307e-23 2.49307e-23 -3.52092e-23 -3.52092e-23 2.91228e-23 2.91228e-23 -1.18915e-23 -1.18915e-23 -7.36792e-24 -7.36792e-24 2.01569e-23 2.01569e-23 -2.21449e-23 -2.21449e-23 1.43594e-23 1.43594e-23 -1.86486e-24 -1.86486e-24 -9.10292e-24 -9.10292e-24 1.40488e-23 1.40488e-23 -1.18933e-23 -1.18933e-23 4.87115e-24 4.87115e-24 3.01709e-24 3.01709e-24 -8.08013e-24 -8.08013e-24 8.53159e-24 8.53159e-24 -4.97103e-24 -4.97103e-24 -2.84818e-25 -2.84818e-25 4.53537e-24 4.53537e-24 -5.98644e-24 -5.98644e-24 4.42081e-24 4.42081e-24 -1.04307e-24 -1.04307e-24 -2.3005e-24 -2.3005e-24 4.07289e-24 4.07289e-24 -3.70623e-24 -3.70623e-24 1.71204e-24 1.71204e-24 7.24969e-25 7.24969e-25 -2.40356e-24 -2.40356e-24 2.67079e-24 2.67079e-24 -1.64517e-24 -1.64517e-24 4.30018e-26 4.30018e-26 1.25396e-24 1.25396e-24 -1.64926e-24 -1.64926e-24 1.08424e-24 1.08424e-24 3.0109e-27 3.0109e-27 -9.56404e-25 -9.56404e-25 1.2564e-24 1.2564e-24 -7.71009e-25 -7.71009e-25 -2.07767e-25 -2.07767e-25 1.1395e-24 1.1395e-24 -1.52036e-24 -1.52036e-24 1.13243e-24 1.13243e-24 -1.41238e-25 -1.41238e-25 -9.94224e-25 -9.94224e-25 1.74546e-24 1.74546e-24 -1.76093e-24 -1.76093e-24 1.0216e-24 1.0216e-24 1.59408e-25 1.59408e-25 -1.28374e-24 -1.28374e-24 1.88843e-24 1.88843e-24 -1.74029e-24 -1.74029e-24 9.22501e-25 9.22501e-25 2.1585e-25 2.1585e-25 -1.21671e-24 -1.21671e-24 1.70372e-24 1.70372e-24 -1.52585e-24 -1.52585e-24 7.99705e-25 7.99705e-25 1.57877e-25 1.57877e-25 -9.70011e-25 -9.70011e-25 1.35023e-24 1.35023e-24 -1.20299e-24 -1.20299e-24 6.39976e-25 6.39976e-25 8.49085e-26 8.49085e-26 -6.87654e-25 -6.87654e-25 9.64461e-25 9.64461e-25 -8.58094e-25 -8.58094e-25 4.60273e-25 4.60273e-25 4.25695e-26 4.25695e-26 -4.51975e-25 -4.51975e-25 6.332e-25 6.332e-25 -5.56144e-25 -5.56144e-25 2.90854e-25 2.90854e-25 3.40478e-26 3.40478e-26 -2.88714e-25 -2.88714e-25 3.90974e-25 3.90974e-25 -3.29489e-25 -3.29489e-25 1.56346e-25 1.56346e-25 4.32231e-26 4.32231e-26 -1.88785e-25 -1.88785e-25 2.34531e-25 2.34531e-25 -1.80893e-25 -1.80893e-25 6.64724e-26 6.64724e-26 5.33522e-26 5.33522e-26 -1.30691e-25 -1.30691e-25 1.42434e-25 1.42434e-25 -9.50455e-26 -9.50455e-26 1.70915e-26 1.70915e-26 5.55692e-26 5.55692e-26 -9.49706e-26 -9.49706e-26 9.0655e-26 9.0655e-26 -5.0919e-26 -5.0919e-26 -3.