# vtk DataFile Version 3.0
#This file was generated by the deal.II library on 2020/8/11 at 19:54:41
ASCII
DATASET UNSTRUCTURED_GRID

POINTS 4096 double
0.5 0 0
0.743896 0 0
0.743896 0 0
0.987793 0 0
0.987793 0 0
1.23169 0 0
1.23169 0 0
1.47559 0 0
1.47559 0 0
1.71948 0 0
1.71948 0 0
1.96338 0 0
1.96338 0 0
2.20728 0 0
2.20728 0 0
2.45117 0 0
2.45117 0 0
2.69507 0 0
2.69507 0 0
2.93896 0 0
2.93896 0 0
3.18286 0 0
3.18286 0 0
3.42676 0 0
3.42676 0 0
3.67065 0 0
3.67065 0 0
3.91455 0 0
3.91455 0 0
4.15845 0 0
4.15845 0 0
4.40234 0 0
4.40234 0 0
4.64624 0 0
4.64624 0 0
4.89014 0 0
4.89014 0 0
5.13403 0 0
5.13403 0 0
5.37793 0 0
5.37793 0 0
5.62183 0 0
5.62183 0 0
5.86572 0 0
5.86572 0 0
6.10962 0 0
6.10962 0 0
6.35352 0 0
6.35352 0 0
6.59741 0 0
6.59741 0 0
6.84131 0 0
6.84131 0 0
7.08521 0 0
7.08521 0 0
7.3291 0 0
7.3291 0 0
7.573 0 0
7.573 0 0
7.81689 0 0
7.81689 0 0
8.06079 0 0
8.06079 0 0
8.30469 0 0
8.30469 0 0
8.54858 0 0
8.54858 0 0
8.79248 0 0
8.79248 0 0
9.03638 0 0
9.03638 0 0
9.28027 0 0
9.28027 0 0
9.52417 0 0
9.52417 0 0
9.76807 0 0
9.76807 0 0
10.012 0 0
10.012 0 0
10.2559 0 0
10.2559 0 0
10.4998 0 0
10.4998 0 0
10.7437 0 0
10.7437 0 0
10.9875 0 0
10.9875 0 0
11.2314 0 0
11.2314 0 0
11.4753 0 0
11.4753 0 0
11.7192 0 0
11.7192 0 0
11.9631 0 0
11.9631 0 0
12.207 0 0
12.207 0 0
12.4509 0 0
12.4509 0 0
12.6948 0 0
12.6948 0 0
12.9387 0 0
12.9387 0 0
13.1826 0 0
13.1826 0 0
13.4265 0 0
13.4265 0 0
13.6704 0 0
13.6704 0 0
13.9143 0 0
13.9143 0 0
14.1582 0 0
14.1582 0 0
14.4021 0 0
14.4021 0 0
14.646 0 0
14.646 0 0
14.8899 0 0
14.8899 0 0
15.1338 0 0
15.1338 0 0
15.3777 0 0
15.3777 0 0
15.6216 0 0
15.6216 0 0
15.8655 0 0
15.8655 0 0
16.1094 0 0
16.1094 0 0
16.3533 0 0
16.3533 0 0
16.5972 0 0
16.5972 0 0
16.8411 0 0
16.8411 0 0
17.085 0 0
17.085 0 0
17.3289 0 0
17.3289 0 0
17.5728 0 0
17.5728 0 0
17.8167 0 0
17.8167 0 0
18.0605 0 0
18.0605 0 0
18.3044 0 0
18.3044 0 0
18.5483 0 0
18.5483 0 0
18.7922 0 0
18.7922 0 0
19.0361 0 0
19.0361 0 0
19.28 0 0
19.28 0 0
19.5239 0 0
19.5239 0 0
19.7678 0 0
19.7678 0 0
20.0117 0 0
20.0117 0 0
20.2556 0 0
20.2556 0 0
20.4995 0 0
20.4995 0 0
20.7434 0 0
20.7434 0 0
20.9873 0 0
20.9873 0 0
21.2312 0 0
21.2312 0 0
21.4751 0 0
21.4751 0 0
21.719 0 0
21.719 0 0
21.9629 0 0
21.9629 0 0
22.2068 0 0
22.2068 0 0
22.4507 0 0
22.4507 0 0
22.6946 0 0
22.6946 0 0
22.9385 0 0
22.9385 0 0
23.1824 0 0
23.1824 0 0
23.4263 0 0
23.4263 0 0
23.6702 0 0
23.6702 0 0
23.9141 0 0
23.9141 0 0
24.158 0 0
24.158 0 0
24.4019 0 0
24.4019 0 0
24.6458 0 0
24.6458 0 0
24.8896 0 0
24.8896 0 0
25.1335 0 0
25.1335 0 0
25.3774 0 0
25.3774 0 0
25.6213 0 0
25.6213 0 0
25.8652 0 0
25.8652 0 0
26.1091 0 0
26.1091 0 0
26.353 0 0
26.353 0 0
26.5969 0 0
26.5969 0 0
26.8408 0 0
26.8408 0 0
27.0847 0 0
27.0847 0 0
27.3286 0 0
27.3286 0 0
27.5725 0 0
27.5725 0 0
27.8164 0 0
27.8164 0 0
28.0603 0 0
28.0603 0 0
28.3042 0 0
28.3042 0 0
28.5481 0 0
28.5481 0 0
28.792 0 0
28.792 0 0
29.0359 0 0
29.0359 0 0
29.2798 0 0
29.2798 0 0
29.5237 0 0
29.5237 0 0
29.7676 0 0
29.7676 0 0
30.0115 0 0
30.0115 0 0
30.2554 0 0
30.2554 0 0
30.4993 0 0
30.4993 0 0
30.7432 0 0
30.7432 0 0
30.9871 0 0
30.9871 0 0
31.231 0 0
31.231 0 0
31.4749 0 0
31.4749 0 0
31.7188 0 0
31.7188 0 0
31.9626 0 0
31.9626 0 0
32.2065 0 0
32.2065 0 0
32.4504 0 0
32.4504 0 0
32.6943 0 0
32.6943 0 0
32.9382 0 0
32.9382 0 0
33.1821 0 0
33.1821 0 0
33.426 0 0
33.426 0 0
33.6699 0 0
33.6699 0 0
33.9138 0 0
33.9138 0 0
34.1577 0 0
34.1577 0 0
34.4016 0 0
34.4016 0 0
34.6455 0 0
34.6455 0 0
34.8894 0 0
34.8894 0 0
35.1333 0 0
35.1333 0 0
35.3772 0 0
35.3772 0 0
35.6211 0 0
35.6211 0 0
35.865 0 0
35.865 0 0
36.1089 0 0
36.1089 0 0
36.3528 0 0
36.3528 0 0
36.5967 0 0
36.5967 0 0
36.8406 0 0
36.8406 0 0
37.0845 0 0
37.0845 0 0
37.3284 0 0
37.3284 0 0
37.5723 0 0
37.5723 0 0
37.8162 0 0
37.8162 0 0
38.0601 0 0
38.0601 0 0
38.304 0 0
38.304 0 0
38.5479 0 0
38.5479 0 0
38.7917 0 0
38.7917 0 0
39.0356 0 0
39.0356 0 0
39.2795 0 0
39.2795 0 0
39.5234 0 0
39.5234 0 0
39.7673 0 0
39.7673 0 0
40.0112 0 0
40.0112 0 0
40.2551 0 0
40.2551 0 0
40.499 0 0
40.499 0 0
40.7429 0 0
40.7429 0 0
40.9868 0 0
40.9868 0 0
41.2307 0 0
41.2307 0 0
41.4746 0 0
41.4746 0 0
41.7185 0 0
41.7185 0 0
41.9624 0 0
41.9624 0 0
42.2063 0 0
42.2063 0 0
42.4502 0 0
42.4502 0 0
42.6941 0 0
42.6941 0 0
42.938 0 0
42.938 0 0
43.1819 0 0
43.1819 0 0
43.4258 0 0
43.4258 0 0
43.6697 0 0
43.6697 0 0
43.9136 0 0
43.9136 0 0
44.1575 0 0
44.1575 0 0
44.4014 0 0
44.4014 0 0
44.6453 0 0
44.6453 0 0
44.8892 0 0
44.8892 0 0
45.1331 0 0
45.1331 0 0
45.377 0 0
45.377 0 0
45.6208 0 0
45.6208 0 0
45.8647 0 0
45.8647 0 0
46.1086 0 0
46.1086 0 0
46.3525 0 0
46.3525 0 0
46.5964 0 0
46.5964 0 0
46.8403 0 0
46.8403 0 0
47.0842 0 0
47.0842 0 0
47.3281 0 0
47.3281 0 0
47.572 0 0
47.572 0 0
47.8159 0 0
47.8159 0 0
48.0598 0 0
48.0598 0 0
48.3037 0 0
48.3037 0 0
48.5476 0 0
48.5476 0 0
48.7915 0 0
48.7915 0 0
49.0354 0 0
49.0354 0 0
49.2793 0 0
49.2793 0 0
49.5232 0 0
49.5232 0 0
49.7671 0 0
49.7671 0 0
50.011 0 0
50.011 0 0
50.2549 0 0
50.2549 0 0
50.4988 0 0
50.4988 0 0
50.7427 0 0
50.7427 0 0
50.9866 0 0
50.9866 0 0
51.2305 0 0
51.2305 0 0
51.4744 0 0
51.4744 0 0
51.7183 0 0
51.7183 0 0
51.9622 0 0
51.9622 0 0
52.2061 0 0
52.2061 0 0
52.45 0 0
52.45 0 0
52.6938 0 0
52.6938 0 0
52.9377 0 0
52.9377 0 0
53.1816 0 0
53.1816 0 0
53.4255 0 0
53.4255 0 0
53.6694 0 0
53.6694 0 0
53.9133 0 0
53.9133 0 0
54.1572 0 0
54.1572 0 0
54.4011 0 0
54.4011 0 0
54.645 0 0
54.645 0 0
54.8889 0 0
54.8889 0 0
55.1328 0 0
55.1328 0 0
55.3767 0 0
55.3767 0 0
55.6206 0 0
55.6206 0 0
55.8645 0 0
55.8645 0 0
56.1084 0 0
56.1084 0 0
56.3523 0 0
56.3523 0 0
56.5962 0 0
56.5962 0 0
56.8401 0 0
56.8401 0 0
57.084 0 0
57.084 0 0
57.3279 0 0
57.3279 0 0
57.5718 0 0
57.5718 0 0
57.8157 0 0
57.8157 0 0
58.0596 0 0
58.0596 0 0
58.3035 0 0
58.3035 0 0
58.5474 0 0
58.5474 0 0
58.7913 0 0
58.7913 0 0
59.0352 0 0
59.0352 0 0
59.2791 0 0
59.2791 0 0
59.5229 0 0
59.5229 0 0
59.7668 0 0
59.7668 0 0
60.0107 0 0
60.0107 0 0
60.2546 0 0
60.2546 0 0
60.4985 0 0
60.4985 0 0
60.7424 0 0
60.7424 0 0
60.9863 0 0
60.9863 0 0
61.2302 0 0
61.2302 0 0
61.4741 0 0
61.4741 0 0
61.718 0 0
61.718 0 0
61.9619 0 0
61.9619 0 0
62.2058 0 0
62.2058 0 0
62.4497 0 0
62.4497 0 0
62.6936 0 0
62.6936 0 0
62.9375 0 0
62.9375 0 0
63.1814 0 0
63.1814 0 0
63.4253 0 0
63.4253 0 0
63.6692 0 0
63.6692 0 0
63.9131 0 0
63.9131 0 0
64.157 0 0
64.157 0 0
64.4009 0 0
64.4009 0 0
64.6448 0 0
64.6448 0 0
64.8887 0 0
64.8887 0 0
65.1326 0 0
65.1326 0 0
65.3765 0 0
65.3765 0 0
65.6204 0 0
65.6204 0 0
65.8643 0 0
65.8643 0 0
66.1082 0 0
66.1082 0 0
66.3521 0 0
66.3521 0 0
66.5959 0 0
66.5959 0 0
66.8398 0 0
66.8398 0 0
67.0837 0 0
67.0837 0 0
67.3276 0 0
67.3276 0 0
67.5715 0 0
67.5715 0 0
67.8154 0 0
67.8154 0 0
68.0593 0 0
68.0593 0 0
68.3032 0 0
68.3032 0 0
68.5471 0 0
68.5471 0 0
68.791 0 0
68.791 0 0
69.0349 0 0
69.0349 0 0
69.2788 0 0
69.2788 0 0
69.5227 0 0
69.5227 0 0
69.7666 0 0
69.7666 0 0
70.0105 0 0
70.0105 0 0
70.2544 0 0
70.2544 0 0
70.4983 0 0
70.4983 0 0
70.7422 0 0
70.7422 0 0
70.9861 0 0
70.9861 0 0
71.23 0 0
71.23 0 0
71.4739 0 0
71.4739 0 0
71.7178 0 0
71.7178 0 0
71.9617 0 0
71.9617 0 0
72.2056 0 0
72.2056 0 0
72.4495 0 0
72.4495 0 0
72.6934 0 0
72.6934 0 0
72.9373 0 0
72.9373 0 0
73.1812 0 0
73.1812 0 0
73.425 0 0
73.425 0 0
73.6689 0 0
73.6689 0 0
73.9128 0 0
73.9128 0 0
74.1567 0 0
74.1567 0 0
74.4006 0 0
74.4006 0 0
74.6445 0 0
74.6445 0 0
74.8884 0 0
74.8884 0 0
75.1323 0 0
75.1323 0 0
75.3762 0 0
75.3762 0 0
75.6201 0 0
75.6201 0 0
75.864 0 0
75.864 0 0
76.1079 0 0
76.1079 0 0
76.3518 0 0
76.3518 0 0
76.5957 0 0
76.5957 0 0
76.8396 0 0
76.8396 0 0
77.0835 0 0
77.0835 0 0
77.3274 0 0
77.3274 0 0
77.5713 0 0
77.5713 0 0
77.8152 0 0
77.8152 0 0
78.0591 0 0
78.0591 0 0
78.303 0 0
78.303 0 0
78.5469 0 0
78.5469 0 0
78.7908 0 0
78.7908 0 0
79.0347 0 0
79.0347 0 0
79.2786 0 0
79.2786 0 0
79.5225 0 0
79.5225 0 0
79.7664 0 0
79.7664 0 0
80.0103 0 0
80.0103 0 0
80.2542 0 0
80.2542 0 0
80.498 0 0
80.498 0 0
80.7419 0 0
80.7419 0 0
80.9858 0 0
80.9858 0 0
81.2297 0 0
81.2297 0 0
81.4736 0 0
81.4736 0 0
81.7175 0 0
81.7175 0 0
81.9614 0 0
81.9614 0 0
82.2053 0 0
82.2053 0 0
82.4492 0 0
82.4492 0 0
82.6931 0 0
82.6931 0 0
82.937 0 0
82.937 0 0
83.1809 0 0
83.1809 0 0
83.4248 0 0
83.4248 0 0
83.6687 0 0
83.6687 0 0
83.9126 0 0
83.9126 0 0
84.1565 0 0
84.1565 0 0
84.4004 0 0
84.4004 0 0
84.6443 0 0
84.6443 0 0
84.8882 0 0
84.8882 0 0
85.1321 0 0
85.1321 0 0
85.376 0 0
85.376 0 0
85.6199 0 0
85.6199 0 0
85.8638 0 0
85.8638 0 0
86.1077 0 0
86.1077 0 0
86.3516 0 0
86.3516 0 0
86.5955 0 0
86.5955 0 0
86.8394 0 0
86.8394 0 0
87.0833 0 0
87.0833 0 0
87.3271 0 0
87.3271 0 0
87.571 0 0
87.571 0 0
87.8149 0 0
87.8149 0 0
88.0588 0 0
88.0588 0 0
88.3027 0 0
88.3027 0 0
88.5466 0 0
88.5466 0 0
88.7905 0 0
88.7905 0 0
89.0344 0 0
89.0344 0 0
89.2783 0 0
89.2783 0 0
89.5222 0 0
89.5222 0 0
89.7661 0 0
89.7661 0 0
90.01 0 0
90.01 0 0
90.2539 0 0
90.2539 0 0
90.4978 0 0
90.4978 0 0
90.7417 0 0
90.7417 0 0
90.9856 0 0
90.9856 0 0
91.2295 0 0
91.2295 0 0
91.4734 0 0
91.4734 0 0
91.7173 0 0
91.7173 0 0
91.9612 0 0
91.9612 0 0
92.2051 0 0
92.2051 0 0
92.449 0 0
92.449 0 0
92.6929 0 0
92.6929 0 0
92.9368 0 0
92.9368 0 0
93.1807 0 0
93.1807 0 0
93.4246 0 0
93.4246 0 0
93.6685 0 0
93.6685 0 0
93.9124 0 0
93.9124 0 0
94.1562 0 0
94.1562 0 0
94.4001 0 0
94.4001 0 0
94.644 0 0
94.644 0 0
94.8879 0 0
94.8879 0 0
95.1318 0 0
95.1318 0 0
95.3757 0 0
95.3757 0 0
95.6196 0 0
95.6196 0 0
95.8635 0 0
95.8635 0 0
96.1074 0 0
96.1074 0 0
96.3513 0 0
96.3513 0 0
96.5952 0 0
96.5952 0 0
96.8391 0 0
96.8391 0 0
97.083 0 0
97.083 0 0
97.3269 0 0
97.3269 0 0
97.5708 0 0
97.5708 0 0
97.8147 0 0
97.8147 0 0
98.0586 0 0
98.0586 0 0
98.3025 0 0
98.3025 0 0
98.5464 0 0
98.5464 0 0
98.7903 0 0
98.7903 0 0
99.0342 0 0
99.0342 0 0
99.2781 0 0
99.2781 0 0
99.522 0 0
99.522 0 0
99.7659 0 0
99.7659 0 0
100.01 0 0
100.01 0 0
100.254 0 0
100.254 0 0
100.498 0 0
100.498 0 0
100.741 0 0
100.741 0 0
100.985 0 0
100.985 0 0
101.229 0 0
101.229 0 0
101.473 0 0
[...]
POINT_DATA 4096
SCALARS solution_0 double 1
LOOKUP_TABLE default
0.235827 -5.49937e+14 -5.49937e+14 -2.16702e+14 -2.16702e+14 -1.41436e+14 -1.41436e+14 -1.04548e+14 -1.04548e+14 -8.18149e+13 -8.18149e+13 -6.61593e+13 -6.61593e+13 -5.46521e+13 -5.46521e+13 -4.58275e+13 -4.58275e+13 -3.88567e+13 -3.88567e+13 -3.32294e+13 -3.32294e+13 -2.86109e+13 -2.86109e+13 -2.47711e+13 -2.47711e+13 -2.15453e+13 -2.15453e+13 -1.88122e+13 -1.88122e+13 -1.64803e+13 -1.64803e+13 -1.44787e+13 -1.44787e+13 -1.27521e+13 -1.27521e+13 -1.12561e+13 -1.12561e+13 -9.95495e+12 -9.95495e+12 -8.8196e+12 -8.8196e+12 -7.82597e+12 -7.82597e+12 -6.95413e+12 -6.95413e+12 -6.18736e+12 -6.18736e+12 -5.51159e+12 -5.51159e+12 -4.91491e+12 -4.91491e+12 -4.38715e+12 -4.38715e+12 -3.91962e+12 -3.91962e+12 -3.50487e+12 -3.50487e+12 -3.13646e+12 -3.13646e+12 -2.80882e+12 -2.80882e+12 -2.5171e+12 -2.5171e+12 -2.25712e+12 -2.25712e+12 -2.02519e+12 -2.02519e+12 -1.81811e+12 -1.81811e+12 -1.63306e+12 -1.63306e+12 -1.46757e+12 -1.46757e+12 -1.31947e+12 -1.31947e+12 -1.18684e+12 -1.18684e+12 -1.06799e+12 -1.06799e+12 -9.61416e+11 -9.61416e+11 -8.65807e+11 -8.65807e+11 -7.79985e+11 -7.79985e+11 -7.0291e+11 -7.0291e+11 -6.33658e+11 -6.33658e+11 -5.71405e+11 -5.71405e+11 -5.15422e+11 -5.15422e+11 -4.65055e+11 -4.65055e+11 -4.19724e+11 -4.19724e+11 -3.7891e+11 -3.7891e+11 -3.4215e+11 -3.4215e+11 -3.0903e+11 -3.0903e+11 -2.79181e+11 -2.79181e+11 -2.5227e+11 -2.5227e+11 -2.28002e+11 -2.28002e+11 -2.06111e+11 -2.06111e+11 -1.86358e+11 -1.86358e+11 -1.68531e+11 -1.68531e+11 -1.52437e+11 -1.52437e+11 -1.37904e+11 -1.37904e+11 -1.24778e+11 -1.24778e+11 -1.1292e+11 -1.1292e+11 -1.02205e+11 -1.02205e+11 -9.25215e+10 -9.25215e+10 -8.37679e+10 -8.37679e+10 -7.58535e+10 -7.58535e+10 -6.86965e+10 -6.86965e+10 -6.22233e+10 -6.22233e+10 -5.63675e+10 -5.63675e+10 -5.10694e+10 -5.10694e+10 -4.6275e+10 -4.6275e+10 -4.19358e+10 -4.19358e+10 -3.80079e+10 -3.80079e+10 -3.44519e+10 -3.44519e+10 -3.12321e+10 -3.12321e+10 -2.83162e+10 -2.83162e+10 -2.56753e+10 -2.56753e+10 -2.32831e+10 -2.32831e+10 -2.11159e+10 -2.11159e+10 -1.91522e+10 -1.91522e+10 -1.73728e+10 -1.73728e+10 -1.57602e+10 -1.57602e+10 -1.42986e+10 -1.42986e+10 -1.29737e+10 -1.29737e+10 -1.17725e+10 -1.17725e+10 -1.06835e+10 -1.06835e+10 -9.69596e+09 -9.69596e+09 -8.80044e+09 -8.80044e+09 -7.98824e+09 -7.98824e+09 -7.25156e+09 -7.25156e+09 -6.58331e+09 -6.58331e+09 -5.97707e+09 -5.97707e+09 -5.42705e+09 -5.42705e+09 -4.92799e+09 -4.92799e+09 -4.47512e+09 -4.47512e+09 -4.06414e+09 -4.06414e+09 -3.69115e+09 -3.69115e+09 -3.3526e+09 -3.3526e+09 -3.0453e+09 -3.0453e+09 -2.76633e+09 -2.76633e+09 -2.51307e+09 -2.51307e+09 -2.28313e+09 -2.28313e+09 -2.07435e+09 -2.07435e+09 -1.88477e+09 -1.88477e+09 -1.71261e+09 -1.71261e+09 -1.55626e+09 -1.55626e+09 -1.41426e+09 -1.41426e+09 -1.28528e+09 -1.28528e+09 -1.16813e+09 -1.16813e+09 -1.06171e+09 -1.06171e+09 -9.65029e+08 -9.65029e+08 -8.77197e+08 -8.77197e+08 -7.97397e+08 -7.97397e+08 -7.2489e+08 -7.2489e+08 -6.59007e+08 -6.59007e+08 -5.99139e+08 -5.99139e+08 -5.44734e+08 -5.44734e+08 -4.95291e+08 -4.95291e+08 -4.50355e+08 -4.50355e+08 -4.09513e+08 -4.09513e+08 -3.72391e+08 -3.72391e+08 -3.38647e+08 -3.38647e+08 -3.07974e+08 -3.07974e+08 -2.80089e+08 -2.80089e+08 -2.5474e+08 -2.5474e+08 -2.31693e+08 -2.31693e+08 -2.1074e+08 -2.1074e+08 -1.91689e+08 -1.91689e+08 -1.74366e+08 -1.74366e+08 -1.58614e+08 -1.58614e+08 -1.44291e+08 -1.44291e+08 -1.31265e+08 -1.31265e+08 -1.19419e+08 -1.19419e+08 -1.08646e+08 -1.08646e+08 -9.88486e+07 -9.88486e+07 -8.99373e+07 -8.99373e+07 -8.1832e+07 -8.1832e+07 -7.44595e+07 -7.44595e+07 -6.77533e+07 -6.77533e+07 -6.16531e+07 -6.16531e+07 -5.61038e+07 -5.61038e+07 -5.10555e+07 -5.10555e+07 -4.64628e+07 -4.64628e+07 -4.22845e+07 -4.22845e+07 -3.8483e+07 -3.8483e+07 -3.50243e+07 -3.50243e+07 -3.18774e+07 -3.18774e+07 -2.9014e+07 -2.9014e+07 -2.64085e+07 -2.64085e+07 -2.40376e+07 -2.40376e+07 -2.18802e+07 -2.18802e+07 -1.99169e+07 -1.99169e+07 -1.81303e+07 -1.81303e+07 -1.65043e+07 -1.65043e+07 -1.50245e+07 -1.50245e+07 -1.36778e+07 -1.36778e+07 -1.2452e+07 -1.2452e+07 -1.13364e+07 -1.13364e+07 -1.0321e+07 -1.0321e+07 -9.39678e+06 -9.39678e+06 -8.5555e+06 -8.5555e+06 -7.78972e+06 -7.78972e+06 -7.09264e+06 -7.09264e+06 -6.45809e+06 -6.45809e+06 -5.88043e+06 -5.88043e+06 -5.35457e+06 -5.35457e+06 -4.87583e+06 -4.87583e+06 -4.43999e+06 -4.43999e+06 -4.0432e+06 -4.0432e+06 -3.68194e+06 -3.68194e+06 -3.35303e+06 -3.35303e+06 -3.05356e+06 -3.05356e+06 -2.7809e+06 -2.7809e+06 -2.53263e+06 -2.53263e+06 -2.30657e+06 -2.30657e+06 -2.10073e+06 -2.10073e+06 -1.9133e+06 -1.9133e+06 -1.74262e+06 -1.74262e+06 -1.5872e+06 -1.5872e+06 -1.44566e+06 -1.44566e+06 -1.31677e+06 -1.31677e+06 -1.1994e+06 -1.1994e+06 -1.0925e+06 -1.0925e+06 -995156 -995156 -906497 -906497 -825751 -825751 -752210 -752210 -685230 -685230 -624225 -624225 -568661 -568661 -518051 -518051 -471953 -471953 -429964 -429964 -391716 -391716 -356877 -356877 -325141 -325141 -296232 -296232 -269898 -269898 -245908 -245908 -224054 -224054 -204145 -204145 -186008 -186008 -169485 -169485 -154432 -154432 -140717 -140717 -128223 -128223 -116839 -116839 -106468 -106468 -97018.3 -97018.3 -88408.7 -88408.7 -80564.2 -80564.2 -73416.8 -73416.8 -66904.3 -66904.3 -60970.3 -60970.3 -55563.3 -55563.3 -50636.5 -50636.5 -46147.1 -46147.1 -42056.3 -42056.3 -38328.6 -38328.6 -34931.7 -34931.7 -31836.3 -31836.3 -29015.5 -29015.5 -26445 -26445 -24102.5 -24102.5 -21967.7 -21967.7 -20022.2 -20022.2 -18249.3 -18249.3 -16633.5 -16633.5 -15161 -15161 -13819 -13819 -12595.9 -12595.9 -11481.2 -11481.2 -10465.2 -10465.2 -9539.29 -9539.29 -8695.37 -8695.37 -7926.19 -7926.19 -7225.13 -7225.13 -6586.14 -6586.14 -6003.73 -6003.73 -5472.88 -5472.88 -4989.02 -4989.02 -4547.98 -4547.98 -4145.98 -4145.98 -3779.54 -3779.54 -3445.53 -3445.53 -3141.06 -3141.06 -2863.53 -2863.53 -2610.54 -2610.54 -2379.93 -2379.93 -2169.71 -2169.71 -1978.08 -1978.08 -1803.39 -1803.39 -1644.14 -1644.14 -1498.97 -1498.97 -1366.63 -1366.63 -1245.98 -1245.98 -1136 -1136 -1035.73 -1035.73 -944.322 -944.322 -860.988 -860.988 -785.015 -785.015 -715.752 -715.752 -652.606 -652.606 -595.036 -595.036 -542.549 -542.549 -494.696 -494.696 -451.067 -451.067 -411.29 -411.29 -375.023 -375.023 -341.957 -341.957 -311.809 -311.809 -284.321 -284.321 -259.259 -259.259 -236.407 -236.407 -215.572 -215.572 -196.574 -196.574 -179.252 -179.252 -163.458 -163.458 -149.056 -149.056 -135.924 -135.924 -123.95 -123.95 -113.032 -113.032 -103.076 -103.076 -93.9982 -93.9982 -85.7202 -85.7202 -78.1718 -78.1718 -71.2886 -71.2886 -65.0119 -65.0119 -59.2883 -59.2883 -54.069 -54.069 -49.3095 -49.3095 -44.9693 -44.9693 -41.0113 -41.0113 -37.402 -37.402 -34.1106 -34.1106 -31.109 -31.109 -28.3718 -28.3718 -25.8755 -25.8755 -23.5991 -23.5991 -21.5231 -21.5231 -19.6298 -19.6298 -17.9032 -17.9032 -16.3285 -16.3285 -14.8925 -14.8925 -13.5828 -13.5828 -12.3884 -12.3884 -11.2991 -11.2991 -10.3056 -10.3056 -9.39954 -9.39954 -8.57319 -8.57319 -7.81953 -7.81953 -7.13216 -7.13216 -6.50525 -6.50525 -5.93346 -5.93346 -5.41195 -5.41195 -4.93628 -4.93628 -4.50241 -4.50241 -4.10666 -4.10666 -3.74565 -3.74565 -3.41632 -3.41632 -3.11587 -3.11587 -2.84173 -2.84173 -2.59156 -2.59156 -2.36324 -2.36324 -2.15482 -2.15482 -1.96452 -1.96452 -1.79073 -1.79073 -1.632 -1.632 -1.48699 -1.48699 -1.35453 -1.35453 -1.23356 -1.23356 -1.12312 -1.12312 -1.02242 -1.02242 -0.930713 -0.930713 -0.84739 -0.84739 -0.771905 -0.771905 -0.703783 -0.703783 -0.642592 -0.642592 -0.587923 -0.587923 -0.53937 -0.53937 -0.496506 -0.496506 -0.458867 -0.458867 -0.425944 -0.425944 -0.397177 -0.397177 -0.371969 -0.371969 -0.349702 -0.349702 -0.329767 -0.329767 -0.311599 -0.311599 -0.294706 -0.294706 -0.278701 -0.278701 -0.263317 -0.263317 -0.248406 -0.248406 -0.23393 -0.23393 -0.21993 -0.21993 -0.206488 -0.206488 -0.193692 -0.193692 -0.181603 -0.181603 -0.17024 -0.17024 -0.159574 -0.159574 -0.149547 -0.149547 -0.140093 -0.140093 -0.131163 -0.131163 -0.122743 -0.122743 -0.114855 -0.114855 -0.107547 -0.107547 -0.100861 -0.100861 -0.0948142 -0.0948142 -0.0893692 -0.0893692 -0.0844342 -0.0844342 -0.0798758 -0.0798758 -0.0755489 -0.0755489 -0.0713332 -0.0713332 -0.0671616 -0.0671616 -0.0630316 -0.0630316 -0.0589926 -0.0589926 -0.0551137 -0.0551137 -0.0514429 -0.0514429 -0.0479717 -0.0479717 -0.0446189 -0.0446189 -0.0412384 -0.0412384 -0.0376478 -0.0376478 -0.033666 -0.033666 -0.0291455 -0.0291455 -0.0239839 -0.0239839 -0.0181104 -0.0181104 -0.0114487 -0.0114487 -0.00386701 -0.00386701 0.00487259 0.00487259 0.0151514 0.0151514 0.0275128 0.0275128 0.0426605 0.0426605 0.061444 0.061444 0.0848391 0.0848391 0.113937 0.113937 0.149949 0.149949 0.194224 0.194224 0.248284 0.248284 0.313824 0.313824 0.392689 0.392689 0.486756 0.486756 0.597738 0.597738 0.726903 0.726903 0.874756 0.874756 1.04074 1.04074 1.223 1.223 1.41827 1.41827 1.62182 1.62182 1.8275 1.8275 2.0278 2.0278 2.21404 2.21404 2.37654 2.37654 2.5052 2.5052 2.59013 2.59013 2.62263 2.62263 2.59628 2.59628 2.50787 2.50787 2.35803 2.35803 2.15151 2.15151 1.89691 1.89691 1.60617 1.60617 1.29383 1.29383 0.976066 0.976066 0.669663 0.669663 0.390707 0.390707 0.153092 0.153092 -0.0329982 -0.0329982 -0.16232 -0.16232 -0.235174 -0.235174 -0.257164 -0.257164 -0.238128 -0.238128 -0.190523 -0.190523 -0.127637 -0.127637 -0.0619676 -0.0619676 -0.00393473 -0.00393473 0.0390478 0.0390478 0.0631597 0.0631597 0.0683656 0.0683656 0.0580721 0.0580721 0.0381475 0.0381475 0.0153901 0.0153901 -0.00419668 -0.00419668 -0.0167921 -0.0167921 -0.0213483 -0.0213483 -0.0192288 -0.0192288 -0.0131504 -0.0131504 -0.0059523 -0.0059523 0.0002873 0.0002873 0.00453579 0.00453579 0.00659119 0.00659119 0.00668792 0.00668792 0.0052253 0.0052253 0.00271815 0.00271815 -0.000149027 -0.000149027 -0.00255863 -0.00255863 -0.00377959 -0.00377959 -0.00347832 -0.00347832 -0.00191441 -0.00191441 0.000142629 0.000142629 0.00176811 0.00176811 0.00232384 0.00232384 0.00174151 0.00174151 0.000496448 0.000496448 -0.000695675 -0.000695675 -0.00127206 -0.00127206 -0.00108422 -0.00108422 -0.000402548 -0.000402548 0.000303395 0.000303395 0.000655006 0.000655006 0.000552863 0.000552863 0.000173508 0.000173508 -0.000191037 -0.000191037 -0.000329805 -0.000329805 -0.000221562 -0.000221562 -4.8069e-06 -4.8069e-06 0.000147003 0.000147003 0.000147504 0.000147504 3.66127e-05 3.66127e-05 -7.48432e-05 -7.48432e-05 -9.98792e-05 -9.98792e-05 -3.52503e-05 -3.52503e-05 5.12694e-05 5.12694e-05 8.51417e-05 8.51417e-05 4.45126e-05 4.45126e-05 -2.98203e-05 -2.98203e-05 -7.46803e-05 -7.46803e-05 -5.70799e-05 -5.70799e-05 3.34007e-06 3.34007e-06 5.56126e-05 5.56126e-05 6.05132e-05 6.05132e-05 1.94256e-05 1.94256e-05 -3.14372e-05 -3.14372e-05 -5.27167e-05 -5.27167e-05 -3.2105e-05 -3.2105e-05 9.68068e-06 9.68068e-06 3.86241e-05 3.86241e-05 3.47179e-05 3.47179e-05 5.30024e-06 5.30024e-06 -2.39446e-05 -2.39446e-05 -3.08158e-05 -3.08158e-05 -1.31281e-05 -1.31281e-05 1.21016e-05 1.21016e-05 2.42336e-05 2.42336e-05 1.55917e-05 1.55917e-05 -4.0872e-06 -4.0872e-06 -1.7567e-05 -1.7567e-05 -1.48962e-05 -1.48962e-05 -5.56614e-07 -5.56614e-07 1.20426e-05 1.20426e-05 1.2778e-05 1.2778e-05 2.79493e-06 2.79493e-06 -7.95681e-06 -7.95681e-06 -1.03106e-05 -1.03106e-05 -3.55509e-06 -3.55509e-06 5.14729e-06 5.14729e-06 8.03323e-06 8.03323e-06 3.52486e-06 3.52486e-06 -3.30841e-06 -3.30841e-06 -6.14833e-06 -6.14833e-06 -3.14002e-06 -3.14002e-06 2.1473e-06 2.1473e-06 4.6815e-06 4.6815e-06 2.6429e-06 2.6429e-06 -1.43678e-06 -1.43678e-06 -3.58095e-06 -3.58095e-06 -2.15005e-06 -2.15005e-06 1.01757e-06 1.01757e-06 2.7706e-06 2.7706e-06 1.70619e-06 1.70619e-06 -7.82644e-07 -7.82644e-07 -2.17496e-06 -2.17496e-06 -1.32067e-06 -1.32067e-06 6.60167e-07 6.60167e-07 1.72952e-06 1.72952e-06 9.89358e-07 9.89358e-07 -6.00886e-07 -6.00886e-07 -1.38436e-06 -1.38436e-06 -7.06004e-07 -7.06004e-07 5.70717e-07 5.70717e-07 1.10456e-06 1.10456e-06 4.66563e-07 4.66563e-07 -5.4702e-07 -5.4702e-07 -8.6851e-07 -8.6851e-07 -2.69394e-07 -2.69394e-07 5.16628e-07 5.16628e-07 6.64919e-07 6.64919e-07 1.13631e-07 1.13631e-07 -4.74129e-07 -4.74129e-07 -4.89165e-07 -4.89165e-07 2.52992e-09 2.52992e-09 4.19724e-07 4.19724e-07 3.3982e-07 3.3982e-07 -8.26528e-08 -8.26528e-08 -3.56781e-07 -3.56781e-07 -2.16153e-07 -2.16153e-07 1.31788e-07 1.31788e-07 2.89653e-07 2.89653e-07 1.16944e-07 1.16944e-07 -1.55553e-07 -1.55553e-07 -2.22295e-07 -2.22295e-07 -4.04081e-08 -4.04081e-08 1.59248e-07 1.59248e-07 1.5786e-07 1.5786e-07 -1.53766e-08 -1.53766e-08 -1.47492e-07 -1.47492e-07 -9.89549e-08 -9.89549e-08 5.21572e-08 5.21572e-08 1.24437e-07 1.24437e-07 4.79998e-08 4.79998e-08 -7.16418e-08 -7.16418e-08 -9.42255e-08 -9.42255e-08 -7.26704e-09 -7.26704e-09 7.59723e-08 7.59723e-08 6.12229e-08 6.12229e-08 -2.15184e-08 -2.15184e-08 -6.81584e-08 -6.81584e-08 -2.98005e-08 -2.98005e-08 3.77532e-08 3.77532e-08 5.21293e-08 5.21293e-08 3.74061e-09 3.74061e-09 -4.23363e-08 -4.23363e-08 -3.23159e-08 -3.23159e-08 1.44107e-08 1.44107e-08 3.76211e-08 3.76211e-08 1.29514e-08 1.29514e-08 -2.37351e-08 -2.37351e-08 -2.69598e-08 -2.69598e-08 2.61721e-09 2.61721e-09 2.49487e-08 2.49487e-08 1.40324e-08 1.40324e-08 -1.2396e-08 -1.2396e-08 -2.00745e-08 -2.00745e-08 -2.163e-09 -2.163e-09 1.59176e-08 1.59176e-08 1.19047e-08 1.19047e-08 -6.24766e-09 -6.24766e-09 -1.41321e-08 -1.41321e-08 -3.35161e-09 -3.35161e-09 1.00979e-08 1.00979e-08 9.02714e-09 9.02714e-09 -3.21768e-09 -3.21768e-09 -9.67912e-09 -9.67912e-09 -3.00775e-09 -3.00775e-09 6.51534e-09 6.51534e-09 6.40502e-09 6.40502e-09 -1.83496e-09 -1.83496e-09 -6.54014e-09 -6.54014e-09 -2.20277e-09 -2.20277e-09 4.3202e-09 4.3202e-09 4.33994e-09 4.33994e-09 -1.22406e-09 -1.22406e-09 -4.38727e-09 -4.38727e-09 -1.41712e-09 -1.41712e-09 2.94489e-09 2.94489e-09 2.84185e-09 2.84185e-09 -9.36391e-10 -9.36391e-10 -2.93605e-09 -2.93605e-09 -8.11556e-10 -8.11556e-10 2.06104e-09 2.06104e-09 1.81358e-09 1.81358e-09 -7.79698e-10 -7.79698e-10 -1.97297e-09 -1.97297e-09 -3.9061e-10 -3.9061e-10 1.48618e-09 1.48618e-09 1.12631e-09 1.12631e-09 -6.86429e-10 -6.86429e-10 -1.33436e-09 -1.33436e-09 -1.02079e-10 -1.02079e-10 1.1055e-09 1.1055e-09 6.57546e-10 6.57546e-10 -6.28102e-10 -6.28102e-10 -8.91754e-10 -8.91754e-10 1.02676e-10 1.02676e-10 8.31843e-10 8.31843e-10 3.18045e-10 3.18045e-10 -5.75589e-10 -5.75589e-10 -5.55236e-10 -5.55236e-10 2.42355e-10 2.42355e-10 6.01039e-10 6.01039e-10 6.50892e-11 6.50892e-11 -4.97698e-10 -4.97698e-10 -2.81385e-10 -2.81385e-10 3.10773e-10 3.10773e-10 3.82701e-10 3.82701e-10 -1.05574e-10 -1.05574e-10 -3.79049e-10 -3.79049e-10 -6.82966e-11 -6.82966e-11 3.00961e-10 3.00961e-10 1.83331e-10 1.83331e-10 -1.85839e-10 -1.85839e-10 -2.33123e-10 -2.33123e-10 6.73988e-11 6.73988e-11 2.26871e-10 2.26871e-10 3.04297e-11 3.04297e-11 -1.82294e-10 -1.82294e-10 -9.53303e-11 -9.53303e-11 1.19123e-10 1.19123e-10 1.25295e-10 1.25295e-10 -5.44319e-11 -5.44319e-11 -1.25602e-10 -1.25602e-10 1.32771e-13 1.32771e-13 1.0535e-10 1.0535e-10 3.75988e-11 3.75988e-11 -7.44329e-11 -7.44329e-11 -5.75623e-11 -5.75623e-11 4.14232e-11 4.14232e-11 6.20721e-11 6.20721e-11 -1.24518e-11 -1.24518e-11 -5.53448e-11 -5.53448e-11 -9.05839e-12 -9.05839e-12 4.21033e-11 4.21033e-11 2.2067e-11 2.2067e-11 -2.65843e-11 -2.65843e-11 -2.72775e-11 -2.72775e-11 1.19849e-11 1.19849e-11 2.64189e-11 2.64189e-11 -2.87338e-13 -2.87338e-13 -2.16069e-11 -2.16069e-11 -7.64548e-12 -7.64548e-12 1.48676e-11 1.48676e-11 1.18219e-11 1.18219e-11 -7.84705e-12 -7.84705e-12 -1.28191e-11 -1.28191e-11 1.68567e-12 1.68567e-12 1.14976e-11 1.14976e-11 2.98086e-12 2.98086e-12 -8.7732e-12 -8.7732e-12 -5.94303e-12 -5.94303e-12 5.46278e-12 5.46278e-12 7.30162e-12 7.30162e-12 -2.19941e-12 -2.19941e-12 -7.34698e-12 -7.34698e-12 -5.94411e-13 -5.94411e-13 6.45359e-12 6.45359e-12 2.69363e-12 2.69363e-12 -5.00021e-12 -5.00021e-12 -4.03419e-12 -4.03419e-12 3.31784e-12 3.31784e-12 4.66716e-12 4.66716e-12 -1.66264e-12 -1.66264e-12 -4.71359e-12 -4.71359e-12 2.08539e-13 2.08539e-13 4.32602e-12 4.32602e-12 9.46839e-13 9.46839e-13 -3.65948e-12 -3.65948e-12 -1.76861e-12 -1.76861e-12 2.85241e-12 2.85241e-12 2.26799e-12 2.26799e-12 -2.01626e-12 -2.01626e-12 -2.48592e-12 -2.48592e-12 1.23196e-12 1.23196e-12 2.47886e-12 2.47886e-12 -5.51199e-13 -5.51199e-13 -2.30776e-12 -2.30776e-12 5.55305e-16 5.55305e-16 2.03036e-12 2.03036e-12 4.13034e-13 4.13034e-13 -1.69647e-12 -1.69647e-12 -6.96574e-13 -6.96574e-13 1.34581e-12 1.34581e-12 8.65831e-13 8.65831e-13 -1.0075e-12 -1.0075e-12 -9.41049e-13 -9.41049e-13 7.00928e-13 7.00928e-13 9.43692e-13 9.43692e-13 -4.37162e-13 -4.37162e-13 -8.942e-13 -8.942e-13 2.20731e-13 2.20731e-13 8.10605e-13 8.10605e-13 -5.1366e-14 -5.1366e-14 -7.07847e-13 -7.07847e-13 -7.44126e-14 -7.44126e-14 5.97597e-13 5.97597e-13 1.6198e-13 1.6198e-13 -4.88426e-13 -4.88426e-13 -2.17579e-13 -2.17579e-13 3.86176e-13 3.86176e-13 2.47574e-13 2.47574e-13 -2.94428e-13 -2.94428e-13 -2.57951e-13 -2.57951e-13 2.14991e-13 2.14991e-13 2.54023e-13 2.54023e-13 -1.48356e-13 -1.48356e-13 -2.4029e-13 -2.4029e-13 9.41009e-14 9.41009e-14 2.204e-13 2.204e-13 -5.12202e-14 -5.12202e-14 -1.972e-13 -1.972e-13 1.83813e-14 1.83813e-14 1.72814e-13 1.72814e-13 5.88102e-15 5.88102e-15 -1.48753e-13 -1.48753e-13 -2.30306e-14 -2.30306e-14 1.26029e-13 1.26029e-13 3.44415e-14 3.44415e-14 -1.05256e-13 -1.05256e-13 -4.13466e-14 -4.13466e-14 8.67519e-14 8.67519e-14 4.48133e-14 4.48133e-14 -7.06165e-14 -7.06165e-14 -4.57383e-14 -4.57383e-14 5.68006e-14 5.68006e-14 4.48548e-14 4.48548e-14 -4.51581e-14 -4.51581e-14 -4.2747e-14 -4.2747e-14 3.54866e-14 3.54866e-14 3.98692e-14 3.98692e-14 -2.75577e-14 -2.75577e-14 -3.65654e-14 -3.65654e-14 2.11369e-14 2.11369e-14 3.30885e-14 3.30885e-14 -1.59985e-14 -1.59985e-14 -2.96182e-14 -2.96182e-14 1.19334e-14 1.19334e-14 2.62765e-14 2.62765e-14 -8.75437e-15 -8.75437e-15 -2.31414e-14 -2.31414e-14 6.29745e-15 6.29745e-15 2.02577e-14 2.02577e-14 -4.42211e-15 -4.42211e-15 -1.76457e-14 -1.76457e-14 3.00988e-15 3.00988e-15 1.5309e-14 1.5309e-14 -1.96239e-15 -1.96239e-15 -1.32396e-14 -1.32396e-14 1.19909e-15 1.19909e-15 1.14218e-14 1.14218e-14 -6.54785e-16 -6.54785e-16 -9.83591e-15 -9.83591e-15 2.77317e-16 2.77317e-16 8.46001e-15 8.46001e-15 -2.54184e-17 -2.54184e-17 -7.27169e-15 -7.27169e-15 -1.33232e-16 -1.33232e-16 6.24907e-15 6.24907e-15 2.23696e-16 2.23696e-16 -5.37146e-15 -5.37146e-15 -2.65214e-16 -2.65214e-16 4.61978e-15 4.61978e-15 2.72413e-16 2.72413e-16 -3.97673e-15 -3.97673e-15 -2.5631e-16 -2.5631e-16 3.42686e-15 3.42686e-15 2.25114e-16 2.25114e-16 -2.95653e-15 -2.95653e-15 -1.84887e-16 -1.84887e-16 2.55382e-15 2.55382e-15 1.40056e-16 1.40056e-16 -2.20843e-15 -2.20843e-15 -9.38143e-17 -9.38143e-17 1.91148e-15 1.91148e-15 4.84349e-17 4.84349e-17 -1.65543e-15 -1.65543e-15 -5.50431e-18 -5.50431e-18 1.43389e-15 1.43389e-15 -3.39008e-17 -3.39008e-17 -1.24151e-15 -1.24151e-15 6.90835e-17 6.90835e-17 1.07381e-15 1.07381e-15 -9.96321e-17 -9.96321e-17 -9.27093e-16 -9.27093e-16 1.25351e-16 1.25351e-16 7.98297e-16 7.98297e-16 -1.46214e-16 -1.46214e-16 -6.84923e-16 -6.84923e-16 1.62323e-16 1.62323e-16 5.8493e-16 5.8493e-16 -1.73885e-16 -1.73885e-16 -4.96645e-16 -4.96645e-16 1.81192e-16 1.81192e-16 4.18703e-16 4.18703e-16 -1.84598e-16 -1.84598e-16 -3.49973e-16 -3.49973e-16 1.84503e-16 1.84503e-16 2.89513e-16 2.89513e-16 -1.81342e-16 -1.81342e-16 -2.36519e-16 -2.36519e-16 1.75567e-16 1.75567e-16 1.90294e-16 1.90294e-16 -1.67633e-16 -1.67633e-16 -1.50218e-16 -1.50218e-16 1.57986e-16 1.57986e-16 1.15727e-16 1.15727e-16 -1.47051e-16 -1.47051e-16 -8.63003e-17 -8.63003e-17 1.35225e-16 1.35225e-16 6.14489e-17 6.14489e-17 -1.22866e-16 -1.22866e-16 -4.07117e-17 -4.07117e-17 1.10293e-16 1.10293e-16 2.36524e-17 2.36524e-17 -9.77779e-17 -9.77779e-17 -9.8592e-18 -9.8592e-18 8.55517e-17 8.55517e-17 -1.05467e-18 -1.05467e-18 -7.38012e-17 -7.38012e-17 9.45029e-18 9.45029e-18 6.26742e-17 6.26742e-17 -1.56623e-17 -1.56623e-17 -5.22829e-17 -5.22829e-17 1.99988e-17 1.99988e-17 4.27085e-17 4.27085e-17 -2.27421e-17 -2.27421e-17 -3.40056e-17 -3.40056e-17 2.41496e-17 2.41496e-17 2.62056e-17 2.62056e-17 -2.44553e-17 -2.44553e-17 -1.93207e-17 -1.93207e-17 2.3871