# vtk DataFile Version 3.0
#This file was generated by the deal.II library on 2020/8/11 at 19:54:42
ASCII
DATASET UNSTRUCTURED_GRID

POINTS 4096 double
0.5 0 0
0.743896 0 0
0.743896 0 0
0.987793 0 0
0.987793 0 0
1.23169 0 0
1.23169 0 0
1.47559 0 0
1.47559 0 0
1.71948 0 0
1.71948 0 0
1.96338 0 0
1.96338 0 0
2.20728 0 0
2.20728 0 0
2.45117 0 0
2.45117 0 0
2.69507 0 0
2.69507 0 0
2.93896 0 0
2.93896 0 0
3.18286 0 0
3.18286 0 0
3.42676 0 0
3.42676 0 0
3.67065 0 0
3.67065 0 0
3.91455 0 0
3.91455 0 0
4.15845 0 0
4.15845 0 0
4.40234 0 0
4.40234 0 0
4.64624 0 0
4.64624 0 0
4.89014 0 0
4.89014 0 0
5.13403 0 0
5.13403 0 0
5.37793 0 0
5.37793 0 0
5.62183 0 0
5.62183 0 0
5.86572 0 0
5.86572 0 0
6.10962 0 0
6.10962 0 0
6.35352 0 0
6.35352 0 0
6.59741 0 0
6.59741 0 0
6.84131 0 0
6.84131 0 0
7.08521 0 0
7.08521 0 0
7.3291 0 0
7.3291 0 0
7.573 0 0
7.573 0 0
7.81689 0 0
7.81689 0 0
8.06079 0 0
8.06079 0 0
8.30469 0 0
8.30469 0 0
8.54858 0 0
8.54858 0 0
8.79248 0 0
8.79248 0 0
9.03638 0 0
9.03638 0 0
9.28027 0 0
9.28027 0 0
9.52417 0 0
9.52417 0 0
9.76807 0 0
9.76807 0 0
10.012 0 0
10.012 0 0
10.2559 0 0
10.2559 0 0
10.4998 0 0
10.4998 0 0
10.7437 0 0
10.7437 0 0
10.9875 0 0
10.9875 0 0
11.2314 0 0
11.2314 0 0
11.4753 0 0
11.4753 0 0
11.7192 0 0
11.7192 0 0
11.9631 0 0
11.9631 0 0
12.207 0 0
12.207 0 0
12.4509 0 0
12.4509 0 0
12.6948 0 0
12.6948 0 0
12.9387 0 0
12.9387 0 0
13.1826 0 0
13.1826 0 0
13.4265 0 0
13.4265 0 0
13.6704 0 0
13.6704 0 0
13.9143 0 0
13.9143 0 0
14.1582 0 0
14.1582 0 0
14.4021 0 0
14.4021 0 0
14.646 0 0
14.646 0 0
14.8899 0 0
14.8899 0 0
15.1338 0 0
15.1338 0 0
15.3777 0 0
15.3777 0 0
15.6216 0 0
15.6216 0 0
15.8655 0 0
15.8655 0 0
16.1094 0 0
16.1094 0 0
16.3533 0 0
16.3533 0 0
16.5972 0 0
16.5972 0 0
16.8411 0 0
16.8411 0 0
17.085 0 0
17.085 0 0
17.3289 0 0
17.3289 0 0
17.5728 0 0
17.5728 0 0
17.8167 0 0
17.8167 0 0
18.0605 0 0
18.0605 0 0
18.3044 0 0
18.3044 0 0
18.5483 0 0
18.5483 0 0
18.7922 0 0
18.7922 0 0
19.0361 0 0
19.0361 0 0
19.28 0 0
19.28 0 0
19.5239 0 0
19.5239 0 0
19.7678 0 0
19.7678 0 0
20.0117 0 0
20.0117 0 0
20.2556 0 0
20.2556 0 0
20.4995 0 0
20.4995 0 0
20.7434 0 0
20.7434 0 0
20.9873 0 0
20.9873 0 0
21.2312 0 0
21.2312 0 0
21.4751 0 0
21.4751 0 0
21.719 0 0
21.719 0 0
21.9629 0 0
21.9629 0 0
22.2068 0 0
22.2068 0 0
22.4507 0 0
22.4507 0 0
22.6946 0 0
22.6946 0 0
22.9385 0 0
22.9385 0 0
23.1824 0 0
23.1824 0 0
23.4263 0 0
23.4263 0 0
23.6702 0 0
23.6702 0 0
23.9141 0 0
23.9141 0 0
24.158 0 0
24.158 0 0
24.4019 0 0
24.4019 0 0
24.6458 0 0
24.6458 0 0
24.8896 0 0
24.8896 0 0
25.1335 0 0
25.1335 0 0
25.3774 0 0
25.3774 0 0
25.6213 0 0
25.6213 0 0
25.8652 0 0
25.8652 0 0
26.1091 0 0
26.1091 0 0
26.353 0 0
26.353 0 0
26.5969 0 0
26.5969 0 0
26.8408 0 0
26.8408 0 0
27.0847 0 0
27.0847 0 0
27.3286 0 0
27.3286 0 0
27.5725 0 0
27.5725 0 0
27.8164 0 0
27.8164 0 0
28.0603 0 0
28.0603 0 0
28.3042 0 0
28.3042 0 0
28.5481 0 0
28.5481 0 0
28.792 0 0
28.792 0 0
29.0359 0 0
29.0359 0 0
29.2798 0 0
29.2798 0 0
29.5237 0 0
29.5237 0 0
29.7676 0 0
29.7676 0 0
30.0115 0 0
30.0115 0 0
30.2554 0 0
30.2554 0 0
30.4993 0 0
30.4993 0 0
30.7432 0 0
30.7432 0 0
30.9871 0 0
30.9871 0 0
31.231 0 0
31.231 0 0
31.4749 0 0
31.4749 0 0
31.7188 0 0
31.7188 0 0
31.9626 0 0
31.9626 0 0
32.2065 0 0
32.2065 0 0
32.4504 0 0
32.4504 0 0
32.6943 0 0
32.6943 0 0
32.9382 0 0
32.9382 0 0
33.1821 0 0
33.1821 0 0
33.426 0 0
33.426 0 0
33.6699 0 0
33.6699 0 0
33.9138 0 0
33.9138 0 0
34.1577 0 0
34.1577 0 0
34.4016 0 0
34.4016 0 0
34.6455 0 0
34.6455 0 0
34.8894 0 0
34.8894 0 0
35.1333 0 0
35.1333 0 0
35.3772 0 0
35.3772 0 0
35.6211 0 0
35.6211 0 0
35.865 0 0
35.865 0 0
36.1089 0 0
36.1089 0 0
36.3528 0 0
36.3528 0 0
36.5967 0 0
36.5967 0 0
36.8406 0 0
36.8406 0 0
37.0845 0 0
37.0845 0 0
37.3284 0 0
37.3284 0 0
37.5723 0 0
37.5723 0 0
37.8162 0 0
37.8162 0 0
38.0601 0 0
38.0601 0 0
38.304 0 0
38.304 0 0
38.5479 0 0
38.5479 0 0
38.7917 0 0
38.7917 0 0
39.0356 0 0
39.0356 0 0
39.2795 0 0
39.2795 0 0
39.5234 0 0
39.5234 0 0
39.7673 0 0
39.7673 0 0
40.0112 0 0
40.0112 0 0
40.2551 0 0
40.2551 0 0
40.499 0 0
40.499 0 0
40.7429 0 0
40.7429 0 0
40.9868 0 0
40.9868 0 0
41.2307 0 0
41.2307 0 0
41.4746 0 0
41.4746 0 0
41.7185 0 0
41.7185 0 0
41.9624 0 0
41.9624 0 0
42.2063 0 0
42.2063 0 0
42.4502 0 0
42.4502 0 0
42.6941 0 0
42.6941 0 0
42.938 0 0
42.938 0 0
43.1819 0 0
43.1819 0 0
43.4258 0 0
43.4258 0 0
43.6697 0 0
43.6697 0 0
43.9136 0 0
43.9136 0 0
44.1575 0 0
44.1575 0 0
44.4014 0 0
44.4014 0 0
44.6453 0 0
44.6453 0 0
44.8892 0 0
44.8892 0 0
45.1331 0 0
45.1331 0 0
45.377 0 0
45.377 0 0
45.6208 0 0
45.6208 0 0
45.8647 0 0
45.8647 0 0
46.1086 0 0
46.1086 0 0
46.3525 0 0
46.3525 0 0
46.5964 0 0
46.5964 0 0
46.8403 0 0
46.8403 0 0
47.0842 0 0
47.0842 0 0
47.3281 0 0
47.3281 0 0
47.572 0 0
47.572 0 0
47.8159 0 0
47.8159 0 0
48.0598 0 0
48.0598 0 0
48.3037 0 0
48.3037 0 0
48.5476 0 0
48.5476 0 0
48.7915 0 0
48.7915 0 0
49.0354 0 0
49.0354 0 0
49.2793 0 0
49.2793 0 0
49.5232 0 0
49.5232 0 0
49.7671 0 0
49.7671 0 0
50.011 0 0
50.011 0 0
50.2549 0 0
50.2549 0 0
50.4988 0 0
50.4988 0 0
50.7427 0 0
50.7427 0 0
50.9866 0 0
50.9866 0 0
51.2305 0 0
51.2305 0 0
51.4744 0 0
51.4744 0 0
51.7183 0 0
51.7183 0 0
51.9622 0 0
51.9622 0 0
52.2061 0 0
52.2061 0 0
52.45 0 0
52.45 0 0
52.6938 0 0
52.6938 0 0
52.9377 0 0
52.9377 0 0
53.1816 0 0
53.1816 0 0
53.4255 0 0
53.4255 0 0
53.6694 0 0
53.6694 0 0
53.9133 0 0
53.9133 0 0
54.1572 0 0
54.1572 0 0
54.4011 0 0
54.4011 0 0
54.645 0 0
54.645 0 0
54.8889 0 0
54.8889 0 0
55.1328 0 0
55.1328 0 0
55.3767 0 0
55.3767 0 0
55.6206 0 0
55.6206 0 0
55.8645 0 0
55.8645 0 0
56.1084 0 0
56.1084 0 0
56.3523 0 0
56.3523 0 0
56.5962 0 0
56.5962 0 0
56.8401 0 0
56.8401 0 0
57.084 0 0
57.084 0 0
57.3279 0 0
57.3279 0 0
57.5718 0 0
57.5718 0 0
57.8157 0 0
57.8157 0 0
58.0596 0 0
58.0596 0 0
58.3035 0 0
58.3035 0 0
58.5474 0 0
58.5474 0 0
58.7913 0 0
58.7913 0 0
59.0352 0 0
59.0352 0 0
59.2791 0 0
59.2791 0 0
59.5229 0 0
59.5229 0 0
59.7668 0 0
59.7668 0 0
60.0107 0 0
60.0107 0 0
60.2546 0 0
60.2546 0 0
60.4985 0 0
60.4985 0 0
60.7424 0 0
60.7424 0 0
60.9863 0 0
60.9863 0 0
61.2302 0 0
61.2302 0 0
61.4741 0 0
61.4741 0 0
61.718 0 0
61.718 0 0
61.9619 0 0
61.9619 0 0
62.2058 0 0
62.2058 0 0
62.4497 0 0
62.4497 0 0
62.6936 0 0
62.6936 0 0
62.9375 0 0
62.9375 0 0
63.1814 0 0
63.1814 0 0
63.4253 0 0
63.4253 0 0
63.6692 0 0
63.6692 0 0
63.9131 0 0
63.9131 0 0
64.157 0 0
64.157 0 0
64.4009 0 0
64.4009 0 0
64.6448 0 0
64.6448 0 0
64.8887 0 0
64.8887 0 0
65.1326 0 0
65.1326 0 0
65.3765 0 0
65.3765 0 0
65.6204 0 0
65.6204 0 0
65.8643 0 0
65.8643 0 0
66.1082 0 0
66.1082 0 0
66.3521 0 0
66.3521 0 0
66.5959 0 0
66.5959 0 0
66.8398 0 0
66.8398 0 0
67.0837 0 0
67.0837 0 0
67.3276 0 0
67.3276 0 0
67.5715 0 0
67.5715 0 0
67.8154 0 0
67.8154 0 0
68.0593 0 0
68.0593 0 0
68.3032 0 0
68.3032 0 0
68.5471 0 0
68.5471 0 0
68.791 0 0
68.791 0 0
69.0349 0 0
69.0349 0 0
69.2788 0 0
69.2788 0 0
69.5227 0 0
69.5227 0 0
69.7666 0 0
69.7666 0 0
70.0105 0 0
70.0105 0 0
70.2544 0 0
70.2544 0 0
70.4983 0 0
70.4983 0 0
70.7422 0 0
70.7422 0 0
70.9861 0 0
70.9861 0 0
71.23 0 0
71.23 0 0
71.4739 0 0
71.4739 0 0
71.7178 0 0
71.7178 0 0
71.9617 0 0
71.9617 0 0
72.2056 0 0
72.2056 0 0
72.4495 0 0
72.4495 0 0
72.6934 0 0
72.6934 0 0
72.9373 0 0
72.9373 0 0
73.1812 0 0
73.1812 0 0
73.425 0 0
73.425 0 0
73.6689 0 0
73.6689 0 0
73.9128 0 0
73.9128 0 0
74.1567 0 0
74.1567 0 0
74.4006 0 0
74.4006 0 0
74.6445 0 0
74.6445 0 0
74.8884 0 0
74.8884 0 0
75.1323 0 0
75.1323 0 0
75.3762 0 0
75.3762 0 0
75.6201 0 0
75.6201 0 0
75.864 0 0
75.864 0 0
76.1079 0 0
76.1079 0 0
76.3518 0 0
76.3518 0 0
76.5957 0 0
76.5957 0 0
76.8396 0 0
76.8396 0 0
77.0835 0 0
77.0835 0 0
77.3274 0 0
77.3274 0 0
77.5713 0 0
77.5713 0 0
77.8152 0 0
77.8152 0 0
78.0591 0 0
78.0591 0 0
78.303 0 0
78.303 0 0
78.5469 0 0
78.5469 0 0
78.7908 0 0
78.7908 0 0
79.0347 0 0
79.0347 0 0
79.2786 0 0
79.2786 0 0
79.5225 0 0
79.5225 0 0
79.7664 0 0
79.7664 0 0
80.0103 0 0
80.0103 0 0
80.2542 0 0
80.2542 0 0
80.498 0 0
80.498 0 0
80.7419 0 0
80.7419 0 0
80.9858 0 0
80.9858 0 0
81.2297 0 0
81.2297 0 0
81.4736 0 0
81.4736 0 0
81.7175 0 0
81.7175 0 0
81.9614 0 0
81.9614 0 0
82.2053 0 0
82.2053 0 0
82.4492 0 0
82.4492 0 0
82.6931 0 0
82.6931 0 0
82.937 0 0
82.937 0 0
83.1809 0 0
83.1809 0 0
83.4248 0 0
83.4248 0 0
83.6687 0 0
83.6687 0 0
83.9126 0 0
83.9126 0 0
84.1565 0 0
84.1565 0 0
84.4004 0 0
84.4004 0 0
84.6443 0 0
84.6443 0 0
84.8882 0 0
84.8882 0 0
85.1321 0 0
85.1321 0 0
85.376 0 0
85.376 0 0
85.6199 0 0
85.6199 0 0
85.8638 0 0
85.8638 0 0
86.1077 0 0
86.1077 0 0
86.3516 0 0
86.3516 0 0
86.5955 0 0
86.5955 0 0
86.8394 0 0
86.8394 0 0
87.0833 0 0
87.0833 0 0
87.3271 0 0
87.3271 0 0
87.571 0 0
87.571 0 0
87.8149 0 0
87.8149 0 0
88.0588 0 0
88.0588 0 0
88.3027 0 0
88.3027 0 0
88.5466 0 0
88.5466 0 0
88.7905 0 0
88.7905 0 0
89.0344 0 0
89.0344 0 0
89.2783 0 0
89.2783 0 0
89.5222 0 0
89.5222 0 0
89.7661 0 0
89.7661 0 0
90.01 0 0
90.01 0 0
90.2539 0 0
90.2539 0 0
90.4978 0 0
90.4978 0 0
90.7417 0 0
90.7417 0 0
90.9856 0 0
90.9856 0 0
91.2295 0 0
91.2295 0 0
91.4734 0 0
91.4734 0 0
91.7173 0 0
91.7173 0 0
91.9612 0 0
91.9612 0 0
92.2051 0 0
92.2051 0 0
92.449 0 0
92.449 0 0
92.6929 0 0
92.6929 0 0
92.9368 0 0
92.9368 0 0
93.1807 0 0
93.1807 0 0
93.4246 0 0
93.4246 0 0
93.6685 0 0
93.6685 0 0
93.9124 0 0
93.9124 0 0
94.1562 0 0
94.1562 0 0
94.4001 0 0
94.4001 0 0
94.644 0 0
94.644 0 0
94.8879 0 0
94.8879 0 0
95.1318 0 0
95.1318 0 0
95.3757 0 0
95.3757 0 0
95.6196 0 0
95.6196 0 0
95.8635 0 0
95.8635 0 0
96.1074 0 0
96.1074 0 0
96.3513 0 0
96.3513 0 0
96.5952 0 0
96.5952 0 0
96.8391 0 0
96.8391 0 0
97.083 0 0
97.083 0 0
97.3269 0 0
97.3269 0 0
97.5708 0 0
97.5708 0 0
97.8147 0 0
97.8147 0 0
98.0586 0 0
98.0586 0 0
98.3025 0 0
98.3025 0 0
98.5464 0 0
98.5464 0 0
98.7903 0 0
98.7903 0 0
99.0342 0 0
99.0342 0 0
99.2781 0 0
99.2781 0 0
99.522 0 0
99.522 0 0
99.7659 0 0
99.7659 0 0
100.01 0 0
100.01 0 0
100.254 0 0
100.254 0 0
100.498 0 0
100.498 0 0
100.741 0 0
100.741 0 0
100.985 0 0
100.985 0 0
101.229 0 0
101.229 0 0
101.473 0 0
[...]
POINT_DATA 4096
SCALARS solution_0 double 1
LOOKUP_TABLE default
0.623268 -9.57832e+14 -9.57832e+14 -3.77432e+14 -3.77432e+14 -2.46341e+14 -2.46341e+14 -1.82092e+14 -1.82092e+14 -1.42498e+14 -1.42498e+14 -1.1523e+14 -1.1523e+14 -9.51883e+13 -9.51883e+13 -7.98183e+13 -7.98183e+13 -6.76772e+13 -6.76772e+13 -5.7876e+13 -5.7876e+13 -4.9832e+13 -4.9832e+13 -4.31441e+13 -4.31441e+13 -3.75256e+13 -3.75256e+13 -3.27654e+13 -3.27654e+13 -2.87039e+13 -2.87039e+13 -2.52178e+13 -2.52178e+13 -2.22105e+13 -2.22105e+13 -1.96048e+13 -1.96048e+13 -1.73387e+13 -1.73387e+13 -1.53612e+13 -1.53612e+13 -1.36306e+13 -1.36306e+13 -1.21121e+13 -1.21121e+13 -1.07766e+13 -1.07766e+13 -9.59961e+12 -9.59961e+12 -8.56035e+12 -8.56035e+12 -7.64115e+12 -7.64115e+12 -6.82685e+12 -6.82685e+12 -6.10448e+12 -6.10448e+12 -5.46281e+12 -5.46281e+12 -4.89215e+12 -4.89215e+12 -4.38407e+12 -4.38407e+12 -3.93125e+12 -3.93125e+12 -3.5273e+12 -3.5273e+12 -3.16663e+12 -3.16663e+12 -2.84432e+12 -2.84432e+12 -2.55609e+12 -2.55609e+12 -2.29814e+12 -2.29814e+12 -2.06713e+12 -2.06713e+12 -1.86012e+12 -1.86012e+12 -1.67451e+12 -1.67451e+12 -1.50799e+12 -1.50799e+12 -1.35851e+12 -1.35851e+12 -1.22427e+12 -1.22427e+12 -1.10365e+12 -1.10365e+12 -9.95223e+11 -9.95223e+11 -8.97716e+11 -8.97716e+11 -8.09991e+11 -8.09991e+11 -7.31038e+11 -7.31038e+11 -6.59952e+11 -6.59952e+11 -5.95927e+11 -5.95927e+11 -5.38242e+11 -5.38242e+11 -4.86253e+11 -4.86253e+11 -4.39383e+11 -4.39383e+11 -3.97114e+11 -3.97114e+11 -3.58986e+11 -3.58986e+11 -3.24583e+11 -3.24583e+11 -2.93532e+11 -2.93532e+11 -2.65501e+11 -2.65501e+11 -2.40189e+11 -2.40189e+11 -2.17327e+11 -2.17327e+11 -1.96674e+11 -1.96674e+11 -1.78012e+11 -1.78012e+11 -1.61146e+11 -1.61146e+11 -1.459e+11 -1.459e+11 -1.32115e+11 -1.32115e+11 -1.1965e+11 -1.1965e+11 -1.08375e+11 -1.08375e+11 -9.8176e+10 -9.8176e+10 -8.89482e+10 -8.89482e+10 -8.05977e+10 -8.05977e+10 -7.304e+10 -7.304e+10 -6.61989e+10 -6.61989e+10 -6.00053e+10 -6.00053e+10 -5.43973e+10 -5.43973e+10 -4.93187e+10 -4.93187e+10 -4.4719e+10 -4.4719e+10 -4.05524e+10 -4.05524e+10 -3.67777e+10 -3.67777e+10 -3.33577e+10 -3.33577e+10 -3.02585e+10 -3.02585e+10 -2.74498e+10 -2.74498e+10 -2.49041e+10 -2.49041e+10 -2.25964e+10 -2.25964e+10 -2.05043e+10 -2.05043e+10 -1.86075e+10 -1.86075e+10 -1.68876e+10 -1.68876e+10 -1.53278e+10 -1.53278e+10 -1.39132e+10 -1.39132e+10 -1.26301e+10 -1.26301e+10 -1.14662e+10 -1.14662e+10 -1.04103e+10 -1.04103e+10 -9.45236e+09 -9.45236e+09 -8.58314e+09 -8.58314e+09 -7.79437e+09 -7.79437e+09 -7.07857e+09 -7.07857e+09 -6.42892e+09 -6.42892e+09 -5.83927e+09 -5.83927e+09 -5.30404e+09 -5.30404e+09 -4.81816e+09 -4.81816e+09 -4.37705e+09 -4.37705e+09 -3.97656e+09 -3.97656e+09 -3.61292e+09 -3.61292e+09 -3.28273e+09 -3.28273e+09 -2.98287e+09 -2.98287e+09 -2.71056e+09 -2.71056e+09 -2.46323e+09 -2.46323e+09 -2.23859e+09 -2.23859e+09 -2.03454e+09 -2.03454e+09 -1.84919e+09 -1.84919e+09 -1.6808e+09 -1.6808e+09 -1.52782e+09 -1.52782e+09 -1.38884e+09 -1.38884e+09 -1.26255e+09 -1.26255e+09 -1.1478e+09 -1.1478e+09 -1.04353e+09 -1.04353e+09 -9.4877e+08 -9.4877e+08 -8.62654e+08 -8.62654e+08 -7.84389e+08 -7.84389e+08 -7.13254e+08 -7.13254e+08 -6.48597e+08 -6.48597e+08 -5.89826e+08 -5.89826e+08 -5.36401e+08 -5.36401e+08 -4.87835e+08 -4.87835e+08 -4.43684e+08 -4.43684e+08 -4.03543e+08 -4.03543e+08 -3.67048e+08 -3.67048e+08 -3.33866e+08 -3.33866e+08 -3.03695e+08 -3.03695e+08 -2.7626e+08 -2.7626e+08 -2.51313e+08 -2.51313e+08 -2.28626e+08 -2.28626e+08 -2.07994e+08 -2.07994e+08 -1.89231e+08 -1.89231e+08 -1.72166e+08 -1.72166e+08 -1.56645e+08 -1.56645e+08 -1.42528e+08 -1.42528e+08 -1.29687e+08 -1.29687e+08 -1.18007e+08 -1.18007e+08 -1.07382e+08 -1.07382e+08 -9.77166e+07 -9.77166e+07 -8.89239e+07 -8.89239e+07 -8.09248e+07 -8.09248e+07 -7.36474e+07 -7.36474e+07 -6.70264e+07 -6.70264e+07 -6.10023e+07 -6.10023e+07 -5.55212e+07 -5.55212e+07 -5.0534e+07 -5.0534e+07 -4.5996e+07 -4.5996e+07 -4.18666e+07 -4.18666e+07 -3.8109e+07 -3.8109e+07 -3.46895e+07 -3.46895e+07 -3.15777e+07 -3.15777e+07 -2.87457e+07 -2.87457e+07 -2.61684e+07 -2.61684e+07 -2.38228e+07 -2.38228e+07 -2.16879e+07 -2.16879e+07 -1.97448e+07 -1.97448e+07 -1.79762e+07 -1.79762e+07 -1.63665e+07 -1.63665e+07 -1.49012e+07 -1.49012e+07 -1.35674e+07 -1.35674e+07 -1.23533e+07 -1.23533e+07 -1.12481e+07 -1.12481e+07 -1.0242e+07 -1.0242e+07 -9.32611e+06 -9.32611e+06 -8.49229e+06 -8.49229e+06 -7.73319e+06 -7.73319e+06 -7.04208e+06 -7.04208e+06 -6.41288e+06 -6.41288e+06 -5.84001e+06 -5.84001e+06 -5.31842e+06 -5.31842e+06 -4.84352e+06 -4.84352e+06 -4.41111e+06 -4.41111e+06 -4.01738e+06 -4.01738e+06 -3.65887e+06 -3.65887e+06 -3.33241e+06 -3.33241e+06 -3.03514e+06 -3.03514e+06 -2.76444e+06 -2.76444e+06 -2.51793e+06 -2.51793e+06 -2.29344e+06 -2.29344e+06 -2.08901e+06 -2.08901e+06 -1.90283e+06 -1.90283e+06 -1.73327e+06 -1.73327e+06 -1.57886e+06 -1.57886e+06 -1.43822e+06 -1.43822e+06 -1.31013e+06 -1.31013e+06 -1.19347e+06 -1.19347e+06 -1.08722e+06 -1.08722e+06 -990443 -990443 -902295 -902295 -822006 -822006 -748873 -748873 -682257 -682257 -621577 -621577 -566302 -566302 -515951 -515951 -470084 -470084 -428301 -428301 -390238 -390238 -355562 -355562 -323972 -323972 -295194 -295194 -268975 -268975 -245089 -245089 -223327 -223327 -203500 -203500 -185436 -185436 -168978 -168978 -153983 -153983 -140320 -140320 -127871 -127871 -116528 -116528 -106193 -106193 -96775.3 -96775.3 -88194.2 -88194.2 -80375 -80375 -73250 -73250 -66757.4 -66757.4 -60841 -60841 -55449.7 -55449.7 -50536.7 -50536.7 -46059.5 -46059.5 -41979.5 -41979.5 -38261.4 -38261.4 -34873 -34873 -31785 -31785 -28970.8 -28970.8 -26406.1 -26406.1 -24068.7 -24068.7 -21938.4 -21938.4 -19996.9 -19996.9 -18227.4 -18227.4 -16614.7 -16614.7 -15144.8 -15144.8 -13805.1 -13805.1 -12584.1 -12584.1 -11471.2 -11471.2 -10456.8 -10456.8 -9532.19 -9532.19 -8689.44 -8689.44 -7921.28 -7921.28 -7221.1 -7221.1 -6582.87 -6582.87 -6001.12 -6001.12 -5470.83 -5470.83 -4987.44 -4987.44 -4546.81 -4546.81 -4145.15 -4145.15 -3779.01 -3779.01 -3445.24 -3445.24 -3140.98 -3140.98 -2863.62 -2863.62 -2610.77 -2610.77 -2380.27 -2380.27 -2170.14 -2170.14 -1978.58 -1978.58 -1803.94 -1803.94 -1644.74 -1644.74 -1499.59 -1499.59 -1367.27 -1367.27 -1246.63 -1246.63 -1136.65 -1136.65 -1036.38 -1036.38 -944.964 -944.964 -861.618 -861.618 -785.629 -785.629 -716.348 -716.348 -653.182 -653.182 -595.591 -595.591 -543.082 -543.082 -495.206 -495.206 -451.554 -451.554 -411.754 -411.754 -375.464 -375.464 -342.375 -342.375 -312.205 -312.205 -284.696 -284.696 -259.612 -259.612 -236.741 -236.741 -215.886 -215.886 -196.869 -196.869 -179.529 -179.529 -163.718 -163.718 -149.3 -149.3 -136.153 -136.153 -124.164 -124.164 -113.232 -113.232 -103.263 -103.263 -94.1726 -94.1726 -85.8829 -85.8829 -78.3235 -78.3235 -71.43 -71.43 -65.1436 -65.1436 -59.4109 -59.4109 -54.183 -54.183 -49.4155 -49.4155 -45.0677 -45.0677 -41.1028 -41.1028 -37.487 -37.487 -34.1894 -34.1894 -31.1821 -31.1821 -28.4396 -28.4396 -25.9384 -25.9384 -23.6573 -23.6573 -21.577 -21.577 -19.6797 -19.6797 -17.9494 -17.9494 -16.3713 -16.3713 -14.9321 -14.9321 -13.6194 -13.6194 -12.4222 -12.4222 -11.3304 -11.3304 -10.3345 -10.3345 -9.42627 -9.42627 -8.59788 -8.59788 -7.84233 -7.84233 -7.15321 -7.15321 -6.52468 -6.52468 -5.95139 -5.95139 -5.4285 -5.4285 -4.95154 -4.95154 -4.51649 -4.51649 -4.11965 -4.11965 -3.75763 -3.75763 -3.42737 -3.42737 -3.12606 -3.12606 -2.85113 -2.85113 -2.60024 -2.60024 -2.37125 -2.37125 -2.16222 -2.16222 -1.97136 -1.97136 -1.79706 -1.79706 -1.63786 -1.63786 -1.49244 -1.49244 -1.35959 -1.35959 -1.23825 -1.23825 -1.12749 -1.12749 -1.02647 -1.02647 -0.934459 -0.934459 -0.850836 -0.850836 -0.775048 -0.775048 -0.706614 -0.706614 -0.645098 -0.645098 -0.59009 -0.59009 -0.541188 -0.541188 -0.497971 -0.497971 -0.459985 -0.459985 -0.426733 -0.426733 -0.397671 -0.397671 -0.372215 -0.372215 -0.34976 -0.34976 -0.329704 -0.329704 -0.311482 -0.311482 -0.294596 -0.294596 -0.278646 -0.278646 -0.263345 -0.263345 -0.248527 -0.248527 -0.234134 -0.234134 -0.220191 -0.220191 -0.206776 -0.206776 -0.193977 -0.193977 -0.181866 -0.181866 -0.170472 -0.170472 -0.159781 -0.159781 -0.149744 -0.149744 -0.140296 -0.140296 -0.131384 -0.131384 -0.122981 -0.122981 -0.115098 -0.115098 -0.10777 -0.10777 -0.101042 -0.101042 -0.0949331 -0.0949331 -0.0894232 -0.0894232 -0.0844372 -0.0844372 -0.0798559 -0.0798559 -0.0755398 -0.0755398 -0.0713634 -0.0713634 -0.0672446 -0.0672446 -0.0631611 -0.0631611 -0.0591452 -0.0591452 -0.0552582 -0.0552582 -0.0515527 -0.0515527 -0.0480364 -0.0480364 -0.0446496 -0.0446496 -0.0412654 -0.0412654 -0.0377115 -0.0377115 -0.0338045 -0.0338045 -0.0293833 -0.0293833 -0.0243265 -0.0243265 -0.0185466 -0.0185466 -0.0119602 -0.0119602 -0.00444084 -0.00444084 0.00423119 0.00423119 0.0144103 0.0144103 0.0266096 0.0266096 0.0415051 0.0415051 0.0599247 0.0599247 0.0828299 0.0828299 0.111303 0.111303 0.146544 0.146544 0.189885 0.189885 0.242807 0.242807 0.306952 0.306952 0.384088 0.384088 0.476021 0.476021 0.584419 0.584419 0.710558 0.710558 0.855021 0.855021 1.0174 1.0174 1.19604 1.19604 1.38788 1.38788 1.58842 1.58842 1.79172 1.79172 1.99051 1.99051 2.17635 2.17635 2.33988 2.33988 2.47125 2.47125 2.56078 2.56078 2.59979 2.59979 2.5816 2.5816 2.50254 2.50254 2.36259 2.36259 2.16578 2.16578 1.92006 1.92006 1.6368 1.6368 1.33004 1.33004 1.01557 1.01557 0.709823 0.709823 0.428711 0.428711 0.18622 0.18622 -0.00699566 -0.00699566 -0.144851 -0.144851 -0.226565 -0.226565 -0.256649 -0.256649 -0.244079 -0.244079 -0.200815 -0.200815 -0.140018 -0.140018 -0.0743373 -0.0743373 -0.0145125 -0.0145125 0.0316007 0.0316007 0.0596063 0.0596063 0.0687515 0.0687515 0.0616642 0.0616642 0.0435631 0.0435631 0.0209563 0.0209563 5.45383e-05 5.45383e-05 -0.0146773 -0.0146773 -0.021369 -0.021369 -0.0207205 -0.0207205 -0.0151834 -0.0151834 -0.00775459 -0.00775459 -0.000910045 -0.000910045 0.0039417 0.0039417 0.00642302 0.00642302 0.00680027 0.00680027 0.00558166 0.00558166 0.00331931 0.00331931 0.000611625 0.000611625 -0.00185941 -0.00185941 -0.00341674 -0.00341674 -0.00361986 -0.00361986 -0.0024984 -0.0024984 -0.000601399 -0.000601399 0.00122133 0.00122133 0.00221339 0.00221339 0.0020662 0.0020662 0.00103403 0.00103403 -0.000247947 -0.000247947 -0.00112602 -0.00112602 -0.00125929 -0.00125929 -0.000743666 -0.000743666 1.32395e-05 1.32395e-05 0.000563957 0.000563957 0.000668462 0.000668462 0.000383248 0.000383248 -3.20546e-05 -3.20546e-05 -0.00030607 -0.00030607 -0.000316457 -0.000316457 -0.000129854 -0.000129854 8.16483e-05 8.16483e-05 0.000173198 0.000173198 0.000115479 0.000115479 -1.118e-05 -1.118e-05 -9.61373e-05 -9.61373e-05 -8.37157e-05 -8.37157e-05 -3.2974e-06 -3.2974e-06 6.8305e-05 6.8305e-05 7.37203e-05 7.37203e-05 1.66484e-05 1.66484e-05 -4.96419e-05 -4.96419e-05 -7.07262e-05 -7.07262e-05 -3.40491e-05 -3.40491e-05 2.60892e-05 2.60892e-05 6.06702e-05 6.06702e-05 4.57013e-05 4.57013e-05 -2.116e-06 -2.116e-06 -4.29112e-05 -4.29112e-05 -4.67999e-05 -4.67999e-05 -1.53698e-05 -1.53698e-05 2.33955e-05 2.33955e-05 3.95394e-05 3.95394e-05 2.39658e-05 2.39658e-05 -7.36641e-06 -7.36641e-06 -2.8708e-05 -2.8708e-05 -2.52802e-05 -2.52802e-05 -3.11577e-06 -3.11577e-06 1.82045e-05 1.82045e-05 2.23466e-05 2.23466e-05 8.48931e-06 8.48931e-06 -9.97788e-06 -9.97788e-06 -1.7802e-05 -1.7802e-05 -1.02482e-05 -1.02482e-05 4.41683e-06 4.41683e-06 1.3275e-05 1.3275e-05 9.92006e-06 9.92006e-06 -1.09889e-06 -1.09889e-06 -9.49717e-06 -9.49717e-06 -8.63677e-06 -8.63677e-06 -6.34975e-07 -6.34975e-07 6.63767e-06 6.63767e-06 7.08714e-06 7.08714e-06 1.38139e-06 1.38139e-06 -4.59869e-06 -4.59869e-06 -5.62264e-06 -5.62264e-06 -1.57564e-06 -1.57564e-06 3.19914e-06 3.19914e-06 4.38402e-06 4.38402e-06 1.49487e-06 1.49487e-06 -2.26302e-06 -2.26302e-06 -3.39833e-06 -3.39833e-06 -1.29713e-06 -1.29713e-06 1.64927e-06 1.64927e-06 2.63979e-06 2.63979e-06 1.06337e-06 1.06337e-06 -1.25376e-06 -1.25376e-06 -2.06364e-06 -2.06364e-06 -8.30457e-07 -8.30457e-07 1.00181e-06 1.00181e-06 1.6235e-06 1.6235e-06 6.13377e-07 6.13377e-07 -8.39929e-07 -8.39929e-07 -1.27964e-06 -1.27964e-06 -4.18223e-07 -4.18223e-07 7.30018e-07 7.30018e-07 1.00215e-06 1.00215e-06 2.48492e-07 2.48492e-07 -6.45817e-07 -6.45817e-07 -7.71279e-07 -7.71279e-07 -1.07072e-07 -1.07072e-07 5.70835e-07 5.70835e-07 5.75809e-07 5.75809e-07 -4.017e-09 -4.017e-09 -4.96571e-07 -4.96571e-07 -4.1041e-07 -4.1041e-07 8.44985e-08 8.44985e-08 4.20483e-07 4.20483e-07 2.72836e-07 2.72836e-07 -1.36296e-07 -1.36296e-07 -3.43705e-07 -3.43705e-07 -1.61692e-07 -1.61692e-07 1.63213e-07 1.63213e-07 2.68913e-07 2.68913e-07 7.52162e-08 7.52162e-08 -1.70041e-07 -1.70041e-07 -1.98816e-07 -1.98816e-07 -1.1042e-08 -1.1042e-08 1.61595e-07 1.61595e-07 1.35491e-07 1.35491e-07 -3.34602e-08 -3.34602e-08 -1.42144e-07 -1.42144e-07 -8.04134e-08 -8.04134e-08 6.07979e-08 6.07979e-08 1.15361e-07 1.15361e-07 3.47613e-08 3.47613e-08 -7.32824e-08 -7.32824e-08 -8.46278e-08 -8.46278e-08 4.31983e-10 4.31983e-10 7.32949e-08 7.32949e-08 5.32879e-08 5.32879e-08 -2.44563e-08 -2.44563e-08 -6.36417e-08 -6.36417e-08 -2.46107e-08 -2.46107e-08 3.73275e-08 3.73275e-08 4.76891e-08 4.76891e-08 1.41168e-09 1.41168e-09 -4.01254e-08 -4.01254e-08 -2.91296e-08 -2.91296e-08 1.44462e-08 1.44462e-08 3.50268e-08 3.50268e-08 1.14645e-08 1.14645e-08 -2.24014e-08 -2.24014e-08 -2.4981e-08 -2.4981e-08 2.5618e-09 2.5618e-09 2.32276e-08 2.32276e-08 1.31609e-08 1.31609e-08 -1.13592e-08 -1.13592e-08 -1.87584e-08 -1.87584e-08 -2.38705e-09 -2.38705e-09 1.46217e-08 1.46217e-08 1.142e-08 1.142e-08 -5.33058e-09 -5.33058e-09 -1.3203e-08 -1.3203e-08 -3.6937e-09 -3.6937e-09 9.06423e-09 9.06423e-09 8.78659e-09 8.78659e-09 -2.3989e-09 -2.3989e-09 -9.01798e-09 -9.01798e-09 -3.40124e-09 -3.40124e-09 5.69872e-09 5.69872e-09 6.32312e-09 6.32312e-09 -1.13619e-09 -1.13619e-09 -6.08826e-09 -6.08826e-09 -2.59066e-09 -2.59066e-09 3.70286e-09 3.70286e-09 4.35464e-09 4.35464e-09 -6.62579e-10 -6.62579e-10 -4.0959e-09 -4.0959e-09 -1.75969e-09 -1.75969e-09 2.49907e-09 2.49907e-09 2.90306e-09 2.90306e-09 -5.0713e-10 -5.0713e-10 -2.75477e-09 -2.75477e-09 -1.0927e-09 -1.0927e-09 1.74461e-09 1.74461e-09 1.88831e-09 1.88831e-09 -4.55787e-10 -4.55787e-10 -1.8592e-09 -1.8592e-09 -6.18184e-10 -6.18184e-10 1.25621e-09 1.25621e-09 1.20434e-09 1.20434e-09 -4.33135e-10 -4.33135e-10 -1.26532e-09 -1.26532e-09 -2.97452e-10 -2.97452e-10 9.34607e-10 9.34607e-10 7.46578e-10 7.46578e-10 -4.209e-10 -4.209e-10 -8.65418e-10 -8.65418e-10 -7.78851e-11 -7.78851e-11 7.1431e-10 7.1431e-10 4.28223e-10 4.28223e-10 -4.10354e-10 -4.10354e-10 -5.77813e-10 -5.77813e-10 7.65848e-11 7.65848e-11 5.43781e-10 5.43781e-10 1.93279e-10 1.93279e-10 -3.85766e-10 -3.85766e-10 -3.50149e-10 -3.50149e-10 1.76701e-10 1.76701e-10 3.8784e-10 3.8784e-10 1.99739e-11 1.99739e-11 -3.3081e-10 -3.3081e-10 -1.62934e-10 -1.62934e-10 2.18322e-10 2.18322e-10 2.35779e-10 2.35779e-10 -9.03439e-11 -9.03439e-11 -2.4282e-10 -2.4282e-10 -2.19147e-11 -2.19147e-11 2.01381e-10 2.01381e-10 1.00182e-10 1.00182e-10 -1.33724e-10 -1.33724e-10 -1.38915e-10 -1.38915e-10 6.06175e-11 6.06175e-11 1.42315e-10 1.42315e-10 2.54729e-12 2.54729e-12 -1.20256e-10 -1.20256e-10 -4.7152e-11 -4.7152e-11 8.44019e-11 8.44019e-11 7.08362e-11 7.08362e-11 -4.5307e-11 -4.5307e-11 -7.58776e-11 -7.58776e-11 1.07409e-11 1.07409e-11 6.72062e-11 6.72062e-11 1.48454e-11 1.48454e-11 -5.05912e-11 -5.05912e-11 -3.00251e-11 -3.00251e-11 3.13034e-11 3.13034e-11 3.56303e-11 3.56303e-11 -1.33404e-11 -1.33404e-11 -3.38368e-11 -3.38368e-11 -8.40436e-13 -8.40436e-13 2.73286e-11 2.73286e-11 1.02175e-11 1.02175e-11 -1.8667e-11 -1.8667e-11 -1.48852e-11 -1.48852e-11 9.90597e-12 9.90597e-12 1.56545e-11 1.56545e-11 -2.43043e-12 -2.43043e-12 -1.36752e-11 -1.36752e-11 -3.03547e-12 -3.03547e-12 1.01361e-11 1.01361e-11 6.31467e-12 6.31467e-12 -6.06652e-12 -6.06652e-12 -7.616e-12 -7.616e-12 2.23349e-12 2.23349e-12 7.36978e-12 7.36978e-12 8.82883e-13 8.82883e-13 -6.08778e-12 -6.08778e-12 -3.06156e-12 -3.06156e-12 4.26096e-12 4.26096e-12 4.28372e-12 4.28372e-12 -2.29667e-12 -2.29667e-12 -4.6665e-12 -4.6665e-12 4.90387e-13 4.90387e-13 4.40074e-12 4.40074e-12 9.76543e-13 9.76543e-13 -3.70045e-12 -3.70045e-12 -2.02253e-12 -2.02253e-12 2.767e-12 2.767e-12 2.64286e-12 2.64286e-12 -1.76765e-12 -1.76765e-12 -2.88465e-12 -2.88465e-12 8.26117e-13 8.26117e-13 2.82387e-12 2.82387e-12 -2.20665e-14 -2.20665e-14 -2.54683e-12 -2.54683e-12 -6.03737e-13 -6.03737e-13 2.13679e-12 2.13679e-12 1.04131e-12 1.04131e-12 -1.66564e-12 -1.66564e-12 -1.30251e-12 -1.30251e-12 1.18979e-12 1.18979e-12 1.41264e-12 1.41264e-12 -7.49269e-13 -7.49269e-13 -1.40351e-12 -1.40351e-12 3.68964e-13 3.68964e-13 1.3081e-12 1.3081e-12 -6.10365e-14 -6.10365e-14 -1.15696e-12 -1.15696e-12 -1.72116e-13 -1.72116e-13 9.76171e-13 9.76171e-13 3.34934e-13 3.34934e-13 -7.86354e-13 -7.86354e-13 -4.36084e-13 -4.36084e-13 6.02627e-13 6.02627e-13 4.86342e-13 4.86342e-13 -4.35079e-13 -4.35079e-13 -4.96993e-13 -4.96993e-13 2.89555e-13 2.89555e-13 4.78737e-13 4.78737e-13 -1.68557e-13 -1.68557e-13 -4.41028e-13 -4.41028e-13 7.21303e-14 7.21303e-14 3.91736e-13 3.91736e-13 1.3398e-15 1.3398e-15 -3.37071e-13 -3.37071e-13 -5.44666e-14 -5.44666e-14 2.81664e-13 2.81664e-13 9.03458e-14 9.03458e-14 -2.28753e-13 -2.28753e-13 -1.12178e-13 -1.12178e-13 1.80408e-13 1.80408e-13 1.23011e-13 1.23011e-13 -1.37778e-13 -1.37778e-13 -1.25587e-13 -1.25587e-13 1.01315e-13 1.01315e-13 1.22261e-13 1.22261e-13 -7.09725e-14 -7.09725e-14 -1.14974e-13 -1.14974e-13 4.63775e-14 4.63775e-14 1.05272e-13 1.05272e-13 -2.69588e-14 -2.69588e-14 -9.43386e-14 -9.43386e-14 1.2049e-14 1.2049e-14 8.30457e-14 8.30457e-14 -9.56251e-16 -9.56251e-16 -7.20041e-14 -7.20041e-14 -6.9873e-15 -6.9873e-15 6.16164e-14 6.16164e-14 1.23948e-14 1.23948e-14 -5.21232e-14 -5.21232e-14 -1.58087e-14 -1.58087e-14 4.36439e-14 4.36439e-14 1.76942e-14 1.76942e-14 -3.6211e-14 -3.6211e-14 -1.84401e-14 -1.84401e-14 2.97975e-14 2.97975e-14 1.83636e-14 1.83636e-14 -2.4338e-14 -2.4338e-14 -1.77179e-14 -1.77179e-14 1.97454e-14 1.97454e-14 1.67005e-14 1.67005e-14 -1.59224e-14 -1.59224e-14 -1.5462e-14 -1.5462e-14 1.27698e-14 1.27698e-14 1.41145e-14 1.41145e-14 -1.01922e-14 -1.01922e-14 -1.27388e-14 -1.27388e-14 8.10095e-15 8.10095e-15 1.13912e-14 1.13912e-14 -6.41641e-15 -6.41641e-15 -1.0109e-14 -1.0109e-14 5.06844e-15 5.06844e-15 8.91515e-15 8.91515e-15 -3.99645e-15 -3.99645e-15 -7.82191e-15 -7.82191e-15 3.14888e-15 3.14888e-15 6.83386e-15 6.83386e-15 -2.48244e-15 -2.48244e-15 -5.95026e-15 -5.95026e-15 1.96118e-15 1.96118e-15 5.1668e-15 5.1668e-15 -1.55555e-15 -1.55555e-15 -4.47694e-15 -4.47694e-15 1.24146e-15 1.24146e-15 3.87292e-15 3.87292e-15 -9.99444e-16 -9.99444e-16 -3.34641e-15 -3.34641e-15 8.1385e-16 8.1385e-16 2.88907e-15 2.88907e-15 -6.72187e-16 -6.72187e-16 -2.49283e-15 -2.49283e-15 5.64531e-16 5.64531e-16 2.15014e-15 2.15014e-15 -4.8303e-16 -4.8303e-16 -1.85403e-15 -1.85403e-15 4.21496e-16 4.21496e-16 1.59825e-15 1.59825e-15 -3.75065e-16 -3.75065e-16 -1.37721e-15 -1.37721e-15 3.39927e-16 3.39927e-16 1.18602e-15 1.18602e-15 -3.13103e-16 -3.13103e-16 -1.02039e-15 -1.02039e-15 2.92276e-16 2.92276e-16 8.76664e-16 8.76664e-16 -2.75648e-16 -2.75648e-16 -7.51689e-16 -7.51689e-16 2.61837e-16 2.61837e-16 6.42805e-16 6.42805e-16 -2.49794e-16 -2.49794e-16 -5.47767e-16 -5.47767e-16 2.38733e-16 2.38733e-16 4.64692e-16 4.64692e-16 -2.28085e-16 -2.28085e-16 -3.92011e-16 -3.92011e-16 2.17454e-16 2.17454e-16 3.28414e-16 3.28414e-16 -2.06587e-16 -2.06587e-16 -2.72806e-16 -2.72806e-16 1.95342e-16 1.95342e-16 2.24271e-16 2.24271e-16 -1.83672e-16 -1.83672e-16 -1.82031e-16 -1.82031e-16 1.71596e-16 1.71596e-16 1.45422e-16 1.45422e-16 -1.59187e-16 -1.59187e-16 -1.13866e-16 -1.13866e-16 1.46558e-16 1.46558e-16 8.68493e-17 8.68493e-17 -1.33842e-16 -1.33842e-16 -6.39132e-17 -6.39132e-17 1.21183e-16 1.21183e-16 4.46368e-17 4.46368e-17 -1.08727e-16 -1.08727e-16 -2.86314e-17 -2.86314e-17 9.66125e-17 9.66125e-17 1.55353e-17 1.55353e-17 -8.49647e-17 -8.49647e-17 -5.01037e-18 -5.01037e-18 7.3891e-17 7.3891e-17 -3.25894e-18 -3.25894e-18 -6.34787e-17 -6.34787e-17 9.56637e-18 9.56637e-18 5.37943e-17 5.37943e-17 -1.41836e-17 -1.41836e-17 -4.48839e-17 -4.48839e-17 1.7360