# vtk DataFile Version 3.0
#This file was generated by the deal.II library on 2020/8/11 at 19:54:01
ASCII
DATASET UNSTRUCTURED_GRID

POINTS 4096 double
0.5 0 0
0.743896 0 0
0.743896 0 0
0.987793 0 0
0.987793 0 0
1.23169 0 0
1.23169 0 0
1.47559 0 0
1.47559 0 0
1.71948 0 0
1.71948 0 0
1.96338 0 0
1.96338 0 0
2.20728 0 0
2.20728 0 0
2.45117 0 0
2.45117 0 0
2.69507 0 0
2.69507 0 0
2.93896 0 0
2.93896 0 0
3.18286 0 0
3.18286 0 0
3.42676 0 0
3.42676 0 0
3.67065 0 0
3.67065 0 0
3.91455 0 0
3.91455 0 0
4.15845 0 0
4.15845 0 0
4.40234 0 0
4.40234 0 0
4.64624 0 0
4.64624 0 0
4.89014 0 0
4.89014 0 0
5.13403 0 0
5.13403 0 0
5.37793 0 0
5.37793 0 0
5.62183 0 0
5.62183 0 0
5.86572 0 0
5.86572 0 0
6.10962 0 0
6.10962 0 0
6.35352 0 0
6.35352 0 0
6.59741 0 0
6.59741 0 0
6.84131 0 0
6.84131 0 0
7.08521 0 0
7.08521 0 0
7.3291 0 0
7.3291 0 0
7.573 0 0
7.573 0 0
7.81689 0 0
7.81689 0 0
8.06079 0 0
8.06079 0 0
8.30469 0 0
8.30469 0 0
8.54858 0 0
8.54858 0 0
8.79248 0 0
8.79248 0 0
9.03638 0 0
9.03638 0 0
9.28027 0 0
9.28027 0 0
9.52417 0 0
9.52417 0 0
9.76807 0 0
9.76807 0 0
10.012 0 0
10.012 0 0
10.2559 0 0
10.2559 0 0
10.4998 0 0
10.4998 0 0
10.7437 0 0
10.7437 0 0
10.9875 0 0
10.9875 0 0
11.2314 0 0
11.2314 0 0
11.4753 0 0
11.4753 0 0
11.7192 0 0
11.7192 0 0
11.9631 0 0
11.9631 0 0
12.207 0 0
12.207 0 0
12.4509 0 0
12.4509 0 0
12.6948 0 0
12.6948 0 0
12.9387 0 0
12.9387 0 0
13.1826 0 0
13.1826 0 0
13.4265 0 0
13.4265 0 0
13.6704 0 0
13.6704 0 0
13.9143 0 0
13.9143 0 0
14.1582 0 0
14.1582 0 0
14.4021 0 0
14.4021 0 0
14.646 0 0
14.646 0 0
14.8899 0 0
14.8899 0 0
15.1338 0 0
15.1338 0 0
15.3777 0 0
15.3777 0 0
15.6216 0 0
15.6216 0 0
15.8655 0 0
15.8655 0 0
16.1094 0 0
16.1094 0 0
16.3533 0 0
16.3533 0 0
16.5972 0 0
16.5972 0 0
16.8411 0 0
16.8411 0 0
17.085 0 0
17.085 0 0
17.3289 0 0
17.3289 0 0
17.5728 0 0
17.5728 0 0
17.8167 0 0
17.8167 0 0
18.0605 0 0
18.0605 0 0
18.3044 0 0
18.3044 0 0
18.5483 0 0
18.5483 0 0
18.7922 0 0
18.7922 0 0
19.0361 0 0
19.0361 0 0
19.28 0 0
19.28 0 0
19.5239 0 0
19.5239 0 0
19.7678 0 0
19.7678 0 0
20.0117 0 0
20.0117 0 0
20.2556 0 0
20.2556 0 0
20.4995 0 0
20.4995 0 0
20.7434 0 0
20.7434 0 0
20.9873 0 0
20.9873 0 0
21.2312 0 0
21.2312 0 0
21.4751 0 0
21.4751 0 0
21.719 0 0
21.719 0 0
21.9629 0 0
21.9629 0 0
22.2068 0 0
22.2068 0 0
22.4507 0 0
22.4507 0 0
22.6946 0 0
22.6946 0 0
22.9385 0 0
22.9385 0 0
23.1824 0 0
23.1824 0 0
23.4263 0 0
23.4263 0 0
23.6702 0 0
23.6702 0 0
23.9141 0 0
23.9141 0 0
24.158 0 0
24.158 0 0
24.4019 0 0
24.4019 0 0
24.6458 0 0
24.6458 0 0
24.8896 0 0
24.8896 0 0
25.1335 0 0
25.1335 0 0
25.3774 0 0
25.3774 0 0
25.6213 0 0
25.6213 0 0
25.8652 0 0
25.8652 0 0
26.1091 0 0
26.1091 0 0
26.353 0 0
26.353 0 0
26.5969 0 0
26.5969 0 0
26.8408 0 0
26.8408 0 0
27.0847 0 0
27.0847 0 0
27.3286 0 0
27.3286 0 0
27.5725 0 0
27.5725 0 0
27.8164 0 0
27.8164 0 0
28.0603 0 0
28.0603 0 0
28.3042 0 0
28.3042 0 0
28.5481 0 0
28.5481 0 0
28.792 0 0
28.792 0 0
29.0359 0 0
29.0359 0 0
29.2798 0 0
29.2798 0 0
29.5237 0 0
29.5237 0 0
29.7676 0 0
29.7676 0 0
30.0115 0 0
30.0115 0 0
30.2554 0 0
30.2554 0 0
30.4993 0 0
30.4993 0 0
30.7432 0 0
30.7432 0 0
30.9871 0 0
30.9871 0 0
31.231 0 0
31.231 0 0
31.4749 0 0
31.4749 0 0
31.7188 0 0
31.7188 0 0
31.9626 0 0
31.9626 0 0
32.2065 0 0
32.2065 0 0
32.4504 0 0
32.4504 0 0
32.6943 0 0
32.6943 0 0
32.9382 0 0
32.9382 0 0
33.1821 0 0
33.1821 0 0
33.426 0 0
33.426 0 0
33.6699 0 0
33.6699 0 0
33.9138 0 0
33.9138 0 0
34.1577 0 0
34.1577 0 0
34.4016 0 0
34.4016 0 0
34.6455 0 0
34.6455 0 0
34.8894 0 0
34.8894 0 0
35.1333 0 0
35.1333 0 0
35.3772 0 0
35.3772 0 0
35.6211 0 0
35.6211 0 0
35.865 0 0
35.865 0 0
36.1089 0 0
36.1089 0 0
36.3528 0 0
36.3528 0 0
36.5967 0 0
36.5967 0 0
36.8406 0 0
36.8406 0 0
37.0845 0 0
37.0845 0 0
37.3284 0 0
37.3284 0 0
37.5723 0 0
37.5723 0 0
37.8162 0 0
37.8162 0 0
38.0601 0 0
38.0601 0 0
38.304 0 0
38.304 0 0
38.5479 0 0
38.5479 0 0
38.7917 0 0
38.7917 0 0
39.0356 0 0
39.0356 0 0
39.2795 0 0
39.2795 0 0
39.5234 0 0
39.5234 0 0
39.7673 0 0
39.7673 0 0
40.0112 0 0
40.0112 0 0
40.2551 0 0
40.2551 0 0
40.499 0 0
40.499 0 0
40.7429 0 0
40.7429 0 0
40.9868 0 0
40.9868 0 0
41.2307 0 0
41.2307 0 0
41.4746 0 0
41.4746 0 0
41.7185 0 0
41.7185 0 0
41.9624 0 0
41.9624 0 0
42.2063 0 0
42.2063 0 0
42.4502 0 0
42.4502 0 0
42.6941 0 0
42.6941 0 0
42.938 0 0
42.938 0 0
43.1819 0 0
43.1819 0 0
43.4258 0 0
43.4258 0 0
43.6697 0 0
43.6697 0 0
43.9136 0 0
43.9136 0 0
44.1575 0 0
44.1575 0 0
44.4014 0 0
44.4014 0 0
44.6453 0 0
44.6453 0 0
44.8892 0 0
44.8892 0 0
45.1331 0 0
45.1331 0 0
45.377 0 0
45.377 0 0
45.6208 0 0
45.6208 0 0
45.8647 0 0
45.8647 0 0
46.1086 0 0
46.1086 0 0
46.3525 0 0
46.3525 0 0
46.5964 0 0
46.5964 0 0
46.8403 0 0
46.8403 0 0
47.0842 0 0
47.0842 0 0
47.3281 0 0
47.3281 0 0
47.572 0 0
47.572 0 0
47.8159 0 0
47.8159 0 0
48.0598 0 0
48.0598 0 0
48.3037 0 0
48.3037 0 0
48.5476 0 0
48.5476 0 0
48.7915 0 0
48.7915 0 0
49.0354 0 0
49.0354 0 0
49.2793 0 0
49.2793 0 0
49.5232 0 0
49.5232 0 0
49.7671 0 0
49.7671 0 0
50.011 0 0
50.011 0 0
50.2549 0 0
50.2549 0 0
50.4988 0 0
50.4988 0 0
50.7427 0 0
50.7427 0 0
50.9866 0 0
50.9866 0 0
51.2305 0 0
51.2305 0 0
51.4744 0 0
51.4744 0 0
51.7183 0 0
51.7183 0 0
51.9622 0 0
51.9622 0 0
52.2061 0 0
52.2061 0 0
52.45 0 0
52.45 0 0
52.6938 0 0
52.6938 0 0
52.9377 0 0
52.9377 0 0
53.1816 0 0
53.1816 0 0
53.4255 0 0
53.4255 0 0
53.6694 0 0
53.6694 0 0
53.9133 0 0
53.9133 0 0
54.1572 0 0
54.1572 0 0
54.4011 0 0
54.4011 0 0
54.645 0 0
54.645 0 0
54.8889 0 0
54.8889 0 0
55.1328 0 0
55.1328 0 0
55.3767 0 0
55.3767 0 0
55.6206 0 0
55.6206 0 0
55.8645 0 0
55.8645 0 0
56.1084 0 0
56.1084 0 0
56.3523 0 0
56.3523 0 0
56.5962 0 0
56.5962 0 0
56.8401 0 0
56.8401 0 0
57.084 0 0
57.084 0 0
57.3279 0 0
57.3279 0 0
57.5718 0 0
57.5718 0 0
57.8157 0 0
57.8157 0 0
58.0596 0 0
58.0596 0 0
58.3035 0 0
58.3035 0 0
58.5474 0 0
58.5474 0 0
58.7913 0 0
58.7913 0 0
59.0352 0 0
59.0352 0 0
59.2791 0 0
59.2791 0 0
59.5229 0 0
59.5229 0 0
59.7668 0 0
59.7668 0 0
60.0107 0 0
60.0107 0 0
60.2546 0 0
60.2546 0 0
60.4985 0 0
60.4985 0 0
60.7424 0 0
60.7424 0 0
60.9863 0 0
60.9863 0 0
61.2302 0 0
61.2302 0 0
61.4741 0 0
61.4741 0 0
61.718 0 0
61.718 0 0
61.9619 0 0
61.9619 0 0
62.2058 0 0
62.2058 0 0
62.4497 0 0
62.4497 0 0
62.6936 0 0
62.6936 0 0
62.9375 0 0
62.9375 0 0
63.1814 0 0
63.1814 0 0
63.4253 0 0
63.4253 0 0
63.6692 0 0
63.6692 0 0
63.9131 0 0
63.9131 0 0
64.157 0 0
64.157 0 0
64.4009 0 0
64.4009 0 0
64.6448 0 0
64.6448 0 0
64.8887 0 0
64.8887 0 0
65.1326 0 0
65.1326 0 0
65.3765 0 0
65.3765 0 0
65.6204 0 0
65.6204 0 0
65.8643 0 0
65.8643 0 0
66.1082 0 0
66.1082 0 0
66.3521 0 0
66.3521 0 0
66.5959 0 0
66.5959 0 0
66.8398 0 0
66.8398 0 0
67.0837 0 0
67.0837 0 0
67.3276 0 0
67.3276 0 0
67.5715 0 0
67.5715 0 0
67.8154 0 0
67.8154 0 0
68.0593 0 0
68.0593 0 0
68.3032 0 0
68.3032 0 0
68.5471 0 0
68.5471 0 0
68.791 0 0
68.791 0 0
69.0349 0 0
69.0349 0 0
69.2788 0 0
69.2788 0 0
69.5227 0 0
69.5227 0 0
69.7666 0 0
69.7666 0 0
70.0105 0 0
70.0105 0 0
70.2544 0 0
70.2544 0 0
70.4983 0 0
70.4983 0 0
70.7422 0 0
70.7422 0 0
70.9861 0 0
70.9861 0 0
71.23 0 0
71.23 0 0
71.4739 0 0
71.4739 0 0
71.7178 0 0
71.7178 0 0
71.9617 0 0
71.9617 0 0
72.2056 0 0
72.2056 0 0
72.4495 0 0
72.4495 0 0
72.6934 0 0
72.6934 0 0
72.9373 0 0
72.9373 0 0
73.1812 0 0
73.1812 0 0
73.425 0 0
73.425 0 0
73.6689 0 0
73.6689 0 0
73.9128 0 0
73.9128 0 0
74.1567 0 0
74.1567 0 0
74.4006 0 0
74.4006 0 0
74.6445 0 0
74.6445 0 0
74.8884 0 0
74.8884 0 0
75.1323 0 0
75.1323 0 0
75.3762 0 0
75.3762 0 0
75.6201 0 0
75.6201 0 0
75.864 0 0
75.864 0 0
76.1079 0 0
76.1079 0 0
76.3518 0 0
76.3518 0 0
76.5957 0 0
76.5957 0 0
76.8396 0 0
76.8396 0 0
77.0835 0 0
77.0835 0 0
77.3274 0 0
77.3274 0 0
77.5713 0 0
77.5713 0 0
77.8152 0 0
77.8152 0 0
78.0591 0 0
78.0591 0 0
78.303 0 0
78.303 0 0
78.5469 0 0
78.5469 0 0
78.7908 0 0
78.7908 0 0
79.0347 0 0
79.0347 0 0
79.2786 0 0
79.2786 0 0
79.5225 0 0
79.5225 0 0
79.7664 0 0
79.7664 0 0
80.0103 0 0
80.0103 0 0
80.2542 0 0
80.2542 0 0
80.498 0 0
80.498 0 0
80.7419 0 0
80.7419 0 0
80.9858 0 0
80.9858 0 0
81.2297 0 0
81.2297 0 0
81.4736 0 0
81.4736 0 0
81.7175 0 0
81.7175 0 0
81.9614 0 0
81.9614 0 0
82.2053 0 0
82.2053 0 0
82.4492 0 0
82.4492 0 0
82.6931 0 0
82.6931 0 0
82.937 0 0
82.937 0 0
83.1809 0 0
83.1809 0 0
83.4248 0 0
83.4248 0 0
83.6687 0 0
83.6687 0 0
83.9126 0 0
83.9126 0 0
84.1565 0 0
84.1565 0 0
84.4004 0 0
84.4004 0 0
84.6443 0 0
84.6443 0 0
84.8882 0 0
84.8882 0 0
85.1321 0 0
85.1321 0 0
85.376 0 0
85.376 0 0
85.6199 0 0
85.6199 0 0
85.8638 0 0
85.8638 0 0
86.1077 0 0
86.1077 0 0
86.3516 0 0
86.3516 0 0
86.5955 0 0
86.5955 0 0
86.8394 0 0
86.8394 0 0
87.0833 0 0
87.0833 0 0
87.3271 0 0
87.3271 0 0
87.571 0 0
87.571 0 0
87.8149 0 0
87.8149 0 0
88.0588 0 0
88.0588 0 0
88.3027 0 0
88.3027 0 0
88.5466 0 0
88.5466 0 0
88.7905 0 0
88.7905 0 0
89.0344 0 0
89.0344 0 0
89.2783 0 0
89.2783 0 0
89.5222 0 0
89.5222 0 0
89.7661 0 0
89.7661 0 0
90.01 0 0
90.01 0 0
90.2539 0 0
90.2539 0 0
90.4978 0 0
90.4978 0 0
90.7417 0 0
90.7417 0 0
90.9856 0 0
90.9856 0 0
91.2295 0 0
91.2295 0 0
91.4734 0 0
91.4734 0 0
91.7173 0 0
91.7173 0 0
91.9612 0 0
91.9612 0 0
92.2051 0 0
92.2051 0 0
92.449 0 0
92.449 0 0
92.6929 0 0
92.6929 0 0
92.9368 0 0
92.9368 0 0
93.1807 0 0
93.1807 0 0
93.4246 0 0
93.4246 0 0
93.6685 0 0
93.6685 0 0
93.9124 0 0
93.9124 0 0
94.1562 0 0
94.1562 0 0
94.4001 0 0
94.4001 0 0
94.644 0 0
94.644 0 0
94.8879 0 0
94.8879 0 0
95.1318 0 0
95.1318 0 0
95.3757 0 0
95.3757 0 0
95.6196 0 0
95.6196 0 0
95.8635 0 0
95.8635 0 0
96.1074 0 0
96.1074 0 0
96.3513 0 0
96.3513 0 0
96.5952 0 0
96.5952 0 0
96.8391 0 0
96.8391 0 0
97.083 0 0
97.083 0 0
97.3269 0 0
97.3269 0 0
97.5708 0 0
97.5708 0 0
97.8147 0 0
97.8147 0 0
98.0586 0 0
98.0586 0 0
98.3025 0 0
98.3025 0 0
98.5464 0 0
98.5464 0 0
98.7903 0 0
98.7903 0 0
99.0342 0 0
99.0342 0 0
99.2781 0 0
99.2781 0 0
99.522 0 0
99.522 0 0
99.7659 0 0
99.7659 0 0
100.01 0 0
100.01 0 0
100.254 0 0
100.254 0 0
100.498 0 0
100.498 0 0
100.741 0 0
100.741 0 0
100.985 0 0
100.985 0 0
101.229 0 0
101.229 0 0
101.473 0 0
[...]
POINT_DATA 4096
SCALARS solution_0 double 1
LOOKUP_TABLE default
1.22842e-07 -9.83954e+07 -9.83954e+07 -3.87725e+07 -3.87725e+07 -2.53059e+07 -2.53059e+07 -1.87058e+07 -1.87058e+07 -1.46384e+07 -1.46384e+07 -1.18373e+07 -1.18373e+07 -9.77842e+06 -9.77842e+06 -8.19951e+06 -8.19951e+06 -6.95229e+06 -6.95229e+06 -5.94544e+06 -5.94544e+06 -5.1191e+06 -5.1191e+06 -4.43207e+06 -4.43207e+06 -3.8549e+06 -3.8549e+06 -3.3659e+06 -3.3659e+06 -2.94867e+06 -2.94867e+06 -2.59055e+06 -2.59055e+06 -2.28162e+06 -2.28162e+06 -2.01395e+06 -2.01395e+06 -1.78115e+06 -1.78115e+06 -1.57801e+06 -1.57801e+06 -1.40023e+06 -1.40023e+06 -1.24424e+06 -1.24424e+06 -1.10705e+06 -1.10705e+06 -986140 -986140 -879381 -879381 -784953 -784953 -701303 -701303 -627096 -627096 -561179 -561179 -502556 -502556 -450363 -450363 -403847 -403847 -362350 -362350 -325299 -325299 -292189 -292189 -262580 -262580 -236081 -236081 -212351 -212351 -191085 -191085 -172018 -172018 -154911 -154911 -139556 -139556 -125765 -125765 -113375 -113375 -102236 -102236 -92219.8 -92219.8 -83208.1 -83208.1 -75097.4 -75097.4 -67795 -67795 -61217.9 -61217.9 -55292.1 -55292.1 -49951.4 -49951.4 -45136.5 -45136.5 -40794.4 -40794.4 -36877.6 -36877.6 -33343.4 -33343.4 -30153.7 -30153.7 -27274.1 -27274.1 -24673.9 -24673.9 -22325.4 -22325.4 -20203.8 -20203.8 -18286.7 -18286.7 -16554.1 -16554.1 -14987.9 -14987.9 -13571.8 -13571.8 -12291.3 -12291.3 -11133.1 -11133.1 -10085.3 -10085.3 -9137.39 -9137.39 -8279.57 -8279.57 -7503.2 -7503.2 -6800.42 -6800.42 -6164.17 -6164.17 -5588.08 -5588.08 -5066.37 -5066.37 -4593.85 -4593.85 -4165.83 -4165.83 -3778.07 -3778.07 -3426.74 -3426.74 -3108.37 -3108.37 -2819.84 -2819.84 -2558.32 -2558.32 -2321.26 -2321.26 -2106.35 -2106.35 -1911.5 -1911.5 -1734.81 -1734.81 -1574.58 -1574.58 -1429.27 -1429.27 -1297.46 -1297.46 -1177.89 -1177.89 -1069.42 -1069.42 -971.014 -971.014 -881.721 -881.721 -800.694 -800.694 -727.161 -727.161 -660.425 -660.425 -599.852 -599.852 -544.869 -544.869 -494.955 -494.955 -449.642 -449.642 -408.501 -408.501 -371.145 -371.145 -337.225 -337.225 -306.422 -306.422 -278.448 -278.448 -253.041 -253.041 -229.964 -229.964 -209.003 -209.003 -189.962 -189.962 -172.664 -172.664 -156.949 -156.949 -142.671 -142.671 -129.698 -129.698 -117.91 -117.91 -107.199 -107.199 -97.4644 -97.4644 -88.618 -88.618 -80.578 -80.578 -73.2705 -73.2705 -66.6285 -66.6285 -60.5911 -60.5911 -55.103 -55.103 -50.1139 -50.1139 -45.5783 -45.5783 -41.4548 -41.4548 -37.7058 -37.7058 -34.2971 -34.2971 -31.1977 -31.1977 -28.3794 -28.3794 -25.8166 -25.8166 -23.4861 -23.4861 -21.3666 -21.3666 -19.4391 -19.4391 -17.6861 -17.6861 -16.0917 -16.0917 -14.6415 -14.6415 -13.3224 -13.3224 -12.1225 -12.1225 -11.031 -11.031 -10.0381 -10.0381 -9.13489 -9.13489 -8.31316 -8.31316 -7.56556 -7.56556 -6.88538 -6.88538 -6.26652 -6.26652 -5.70342 -5.70342 -5.19104 -5.19104 -4.72477 -4.72477 -4.30043 -4.30043 -3.9142 -3.9142 -3.56262 -3.56262 -3.24252 -3.24252 -2.95099 -2.95099 -2.68541 -2.68541 -2.44336 -2.44336 -2.22264 -2.22264 -2.02127 -2.02127 -1.83746 -1.83746 -1.66961 -1.66961 -1.51632 -1.51632 -1.37642 -1.37642 -1.2489 -1.2489 -1.13297 -1.13297 -1.02802 -1.02802 -0.933551 -0.933551 -0.849155 -0.849155 -0.77443 -0.77443 -0.708898 -0.708898 -0.651934 -0.651934 -0.602719 -0.602719 -0.56023 -0.56023 -0.523287 -0.523287 -0.490648 -0.490648 -0.461146 -0.461146 -0.433827 -0.433827 -0.408054 -0.408054 -0.383544 -0.383544 -0.360311 -0.360311 -0.338529 -0.338529 -0.318354 -0.318354 -0.299769 -0.299769 -0.282516 -0.282516 -0.266147 -0.266147 -0.250176 -0.250176 -0.234284 -0.234284 -0.218463 -0.218463 -0.203037 -0.203037 -0.18853 -0.18853 -0.175437 -0.175437 -0.163997 -0.163997 -0.154095 -0.154095 -0.145338 -0.145338 -0.137256 -0.137256 -0.129512 -0.129512 -0.121991 -0.121991 -0.114723 -0.114723 -0.107722 -0.107722 -0.100887 -0.100887 -0.0940917 -0.0940917 -0.0874147 -0.0874147 -0.0813148 -0.0813148 -0.0765146 -0.0765146 -0.0735258 -0.0735258 -0.0720556 -0.0720556 -0.0707596 -0.0707596 -0.067714 -0.067714 -0.0615455 -0.0615455 -0.0525856 -0.0525856 -0.0431625 -0.0431625 -0.0365057 -0.0365057 -0.0346542 -0.0346542 -0.0366467 -0.0366467 -0.0384298 -0.0384298 -0.0349873 -0.0349873 -0.0236271 -0.0236271 -0.0062188 -0.0062188 0.0115143 0.0115143 0.0236999 0.0236999 0.0287975 0.0287975 0.0316492 0.0316492 0.0412275 0.0412275 0.0652172 0.0652172 0.105166 0.105166 0.155992 0.155992 0.210727 0.210727 0.267439 0.267439 0.333244 0.333244 0.422095 0.422095 0.547496 0.547496 0.715164 0.715164 0.920881 0.920881 1.15491 1.15491 1.40933 1.40933 1.68232 1.68232 1.9759 1.9759 2.28859 2.28859 2.60861 2.60861 2.9128 2.9128 3.1723 3.1723 3.36134 3.36134 3.46358 3.46358 3.47284 3.47284 3.38921 3.38921 3.21451 3.21451 2.95079 2.95079 2.60324 2.60324 2.18514 2.18514 1.72136 1.72136 1.24748 1.24748 0.803585 0.803585 0.42527 0.42527 0.135351 0.135351 -0.0599242 -0.0599242 -0.168954 -0.168954 -0.20882 -0.20882 -0.19883 -0.19883 -0.156665 -0.156665 -0.0977876 -0.0977876 -0.0363562 -0.0363562 0.0148068 0.0148068 0.0461694 0.0461694 0.0542041 0.0542041 0.0426271 0.0426271 0.0207332 0.0207332 -0.000689431 -0.000689431 -0.013813 -0.013813 -0.0163513 -0.0163513 -0.0111829 -0.0111829 -0.00362198 -0.00362198 0.00186616 0.00186616 0.00364473 0.00364473 0.00276086 0.00276086 0.00127531 0.00127531 0.000517481 0.000517481 0.000460333 0.000460333 0.00034614 0.00034614 -0.000276469 -0.000276469 -0.00107932 -0.00107932 -0.00134514 -0.00134514 -0.000722044 -0.000722044 0.000397754 0.000397754 0.00119011 0.00119011 0.00108555 0.00108555 0.000224674 0.000224674 -0.000684389 -0.000684389 -0.000957587 -0.000957587 -0.000470291 -0.000470291 0.000295105 0.000295105 0.000696763 0.000696763 0.000471251 0.000471251 -9.54823e-05 -9.54823e-05 -0.000477064 -0.000477064 -0.000384346 -0.000384346 2.04621e-05 2.04621e-05 0.000330831 0.000330831 0.000289854 0.000289854 -4.20307e-06 -4.20307e-06 -0.000240868 -0.000240868 -0.000212546 -0.000212546 9.94712e-06 9.94712e-06 0.000185055 0.000185055 0.000153431 0.000153431 -2.18053e-05 -2.18053e-05 -0.000147577 -0.000147577 -0.000107614 -0.000107614 3.33666e-05 3.33666e-05 0.000119032 0.000119032 7.11675e-05 7.11675e-05 -4.18198e-05 -4.18198e-05 -9.48381e-05 -9.48381e-05 -4.21953e-05 -4.21953e-05 4.62866e-05 4.62866e-05 7.34538e-05 7.34538e-05 1.96146e-05 1.96146e-05 -4.72341e-05 -4.72341e-05 -5.44041e-05 -5.44041e-05 -2.16871e-06 -2.16871e-06 4.53792e-05 4.53792e-05 3.69808e-05 3.69808e-05 -1.1204e-05 -1.1204e-05 -4.06682e-05 -4.06682e-05 -2.04784e-05 -2.04784e-05 2.04335e-05 2.04335e-05 3.25432e-05 3.25432e-05 5.3452e-06 5.3452e-06 -2.44154e-05 -2.44154e-05 -2.13648e-05 -2.13648e-05 6.48439e-06 6.48439e-06 2.25372e-05 2.25372e-05 9.31922e-06 9.31922e-06 -1.29504e-05 -1.29504e-05 -1.61469e-05 -1.61469e-05 5.08084e-07 5.08084e-07 1.3742e-05 1.3742e-05 8.25646e-06 8.25646e-06 -6.15854e-06 -6.15854e-06 -1.07053e-05 -1.07053e-05 -1.65815e-06 -1.65815e-06 7.84722e-06 7.84722e-06 6.3661e-06 6.3661e-06 -2.56565e-06 -2.56565e-06 -7.05106e-06 -7.05106e-06 -2.2662e-06 -2.2662e-06 4.70826e-06 4.70826e-06 4.93169e-06 4.93169e-06 -1.15117e-06 -1.15117e-06 -5.10893e-06 -5.10893e-06 -1.97454e-06 -1.97454e-06 3.47984e-06 3.47984e-06 3.72897e-06 3.72897e-06 -1.1198e-06 -1.1198e-06 -3.94936e-06 -3.94936e-06 -1.01516e-06 -1.01516e-06 3.02112e-06 3.02112e-06 2.35989e-06 2.35989e-06 -1.55312e-06 -1.55312e-06 -2.776e-06 -2.776e-06 1.07301e-07 1.07301e-07 2.43754e-06 2.43754e-06 9.51192e-07 9.51192e-07 -1.6654e-06 -1.6654e-06 -1.48567e-06 -1.48567e-06 7.83412e-07 7.83412e-07 1.54078e-06 1.54078e-06 -3.02522e-08 -3.02522e-08 -1.26324e-06 -1.26324e-06 -4.70412e-07 -4.70412e-07 8.26402e-07 8.26402e-07 6.97464e-07 6.97464e-07 -3.77894e-07 -3.77894e-07 -6.98631e-07 -6.98631e-07 1.46134e-08 1.46134e-08 5.53266e-07 5.53266e-07 2.19979e-07 2.19979e-07 -3.42513e-07 -3.42513e-07 -3.24938e-07 -3.24938e-07 1.31072e-07 1.31072e-07 3.25683e-07 3.25683e-07 4.0012e-08 4.0012e-08 -2.58591e-07 -2.58591e-07 -1.5253e-07 -1.5253e-07 1.59498e-07 1.59498e-07 2.05856e-07 2.05856e-07 -5.69909e-08 -5.69909e-08 -2.10259e-07 -2.10259e-07 -3.01426e-08 -3.01426e-08 1.80806e-07 1.80806e-07 9.25275e-08 9.25275e-08 -1.32828e-07 -1.32828e-07 -1.28216e-07 -1.28216e-07 7.91813e-08 7.91813e-08 1.40165e-07 1.40165e-07 -2.9062e-08 -2.9062e-08 -1.33874e-07 -1.33874e-07 -1.20666e-08 -1.20666e-08 1.15557e-07 1.15557e-07 4.1896e-08 4.1896e-08 -9.09292e-08 -9.09292e-08 -6.04194e-08 -6.04194e-08 6.45678e-08 6.45678e-08 6.90639e-08 6.90639e-08 -3.97021e-08 -3.97021e-08 -6.99568e-08 -6.99568e-08 1.82881e-08 1.82881e-08 6.53845e-08 6.53845e-08 -1.23383e-09 -1.23383e-09 -5.74457e-08 -5.74457e-08 -1.13208e-08 -1.13208e-08 4.78686e-08 4.78686e-08 1.97347e-08 1.97347e-08 -3.79494e-08 -3.79494e-08 -2.46395e-08 -2.46395e-08 2.85694e-08 2.85694e-08 2.67703e-08 2.67703e-08 -2.02553e-08 -2.02553e-08 -2.68511e-08 -2.68511e-08 1.32576e-08 1.32576e-08 2.55273e-08 2.55273e-08 -7.62844e-09 -7.62844e-09 -2.33333e-08 -2.33333e-08 3.29118e-09 3.29118e-09 2.06853e-08 2.06853e-08 -9.52283e-11 -9.52283e-11 -1.78886e-08 -1.78886e-08 -2.14261e-09 -2.14261e-09 1.51531e-08 1.51531e-08 3.61006e-09 3.61006e-09 -1.26117e-08 -1.26117e-08 -4.48187e-09 -4.48187e-09 1.03387e-08 1.03387e-08 4.91036e-09 4.91036e-09 -8.36571e-09 -8.36571e-09 -5.02185e-09 -5.02185e-09 6.69506e-09 6.69506e-09 4.91671e-09 4.91671e-09 -5.31022e-09 -5.31022e-09 -4.67177e-09 -4.67177e-09 4.18373e-09 4.18373e-09 4.34385e-09 4.34385e-09 -3.28279e-09 -3.28279e-09 -3.97349e-09 -3.97349e-09 2.57318e-09 2.57318e-09 3.58872e-09 3.58872e-09 -2.02181e-09 -2.02181e-09 -3.20821e-09 -3.20821e-09 1.59837e-09 1.59837e-09 2.84389e-09 2.84389e-09 -1.27619e-09 -1.27619e-09 -2.50305e-09 -2.50305e-09 1.03263e-09 1.03263e-09 2.18972e-09 2.18972e-09 -8.49123e-10 -8.49123e-10 -1.90574e-09 -1.90574e-09 7.10898e-10 7.10898e-10 1.65139e-09 1.65139e-09 -6.06554e-10 -6.06554e-10 -1.4258e-09 -1.4258e-09 5.27514e-10 5.27514e-10 1.22729e-09 1.22729e-09 -4.67427e-10 -4.67427e-10 -1.05356e-09 -1.05356e-09 4.21594e-10 4.21594e-10 9.01929e-10 9.01929e-10 -3.86464e-10 -3.86464e-10 -7.69543e-10 -7.69543e-10 3.59241e-10 3.59241e-10 6.53629e-10 6.53629e-10 -3.37616e-10 -3.37616e-10 -5.5167e-10 -5.5167e-10 3.19629e-10 3.19629e-10 4.61549e-10 4.61549e-10 -3.03626e-10 -3.03626e-10 -3.8162e-10 -3.8162e-10 2.88278e-10 2.88278e-10 3.10694e-10 3.10694e-10 -2.7262e-10 -2.7262e-10 -2.47956e-10 -2.47956e-10 2.56072e-10 2.56072e-10 1.92847e-10 1.92847e-10 -2.38417e-10 -2.38417e-10 -1.44923e-10 -1.44923e-10 2.19735e-10 2.19735e-10 1.03754e-10 1.03754e-10 -2.00299e-10 -2.00299e-10 -6.88488e-11 -6.88488e-11 1.80466e-10 1.80466e-10 3.96549e-11 3.96549e-11 -1.60577e-10 -1.60577e-10 -1.55848e-11 -1.55848e-11 1.40903e-10 1.40903e-10 -3.92541e-12 -3.92541e-12 -1.2163e-10 -1.2163e-10 1.93636e-11 1.93636e-11 1.02891e-10 1.02891e-10 -3.11146e-11 -3.11146e-11 -8.48158e-11 -8.48158e-11 3.94704e-11 3.94704e-11 6.75815e-11 6.75815e-11 -4.46745e-11 -4.46745e-11 -5.1435e-11 -5.1435e-11 4.69841e-11 4.69841e-11 3.66807e-11 3.66807e-11 -4.67269e-11 -4.67269e-11 -2.36343e-11 -2.36343e-11 4.4332e-11 4.4332e-11 1.25551e-11 1.25551e-11 -4.03207e-11 -4.03207e-11 -3.58346e-12 -3.58346e-12 3.52597e-11 3.52597e-11 -3.29644e-12 -3.29644e-12 -2.96915e-11 -2.96915e-11 8.25435e-12 8.25435e-12 2.40644e-11 2.40644e-11 -1.15716e-11 -1.15716e-11 -1.86849e-11 -1.86849e-11 1.35724e-11 1.35724e-11 1.37101e-11 1.37101e-11 -1.45521e-11 -1.45521e-11 -9.17901e-12 -9.17901e-12 1.4725e-11 1.4725e-11 5.0725e-12 5.0725e-12 -1.42094e-11 -1.42094e-11 -1.37896e-12 -1.37896e-12 1.30516e-11 1.30516e-11 -1.85798e-12 -1.85798e-12 -1.1279e-11 -1.1279e-11 4.52665e-12 4.52665e-12 8.95944e-12 8.95944e-12 -6.47346e-12 -6.47346e-12 -6.24438e-12 -6.24438e-12 7.55766e-12 7.55766e-12 3.37694e-12 3.37694e-12 -7.71364e-12 -7.71364e-12 -6.61013e-13 -6.61013e-13 6.99689e-12 6.99689e-12 -1.59971e-12 -1.59971e-12 -5.59542e-12 -5.59542e-12 3.17202e-12 3.17202e-12 3.80059e-12 3.80059e-12 -3.94909e-12 -3.94909e-12 -1.94559e-12 -1.94559e-12 3.97286e-12 3.97286e-12 3.31064e-13 3.31064e-13 -3.41562e-12 -3.41562e-12 8.3872e-13 8.3872e-13 2.52745e-12 2.52745e-12 -1.48978e-12 -1.48978e-12 -1.56702e-12 -1.56702e-12 1.67392e-12 1.67392e-12 7.38043e-13 7.38043e-13 -1.53034e-12 -1.53034e-12 -1.50252e-13 -1.50252e-13 1.22874e-12 1.22874e-12 -1.85916e-13 -1.85916e-13 -9.13992e-13 -9.13992e-13 3.33807e-13 3.33807e-13 6.69881e-13 6.69881e-13 -3.87123e-13 -3.87123e-13 -5.10875e-13 -5.10875e-13 4.26093e-13 4.26093e-13 4.00091e-13 4.00091e-13 -4.8866e-13 -4.8866e-13 -2.82612e-13 -2.82612e-13 5.64644e-13 5.64644e-13 1.19138e-13 1.19138e-13 -6.11376e-13 -6.11376e-13 9.31109e-14 9.31109e-14 5.81371e-13 5.81371e-13 -3.18821e-13 -3.18821e-13 -4.49228e-13 -4.49228e-13 5.00593e-13 5.00593e-13 2.2675e-13 2.2675e-13 -5.84097e-13 -5.84097e-13 3.88321e-14 3.88321e-14 5.41251e-13 5.41251e-13 -2.8144e-13 -2.8144e-13 -3.82194e-13 -3.82194e-13 4.39823e-13 4.39823e-13 1.52129e-13 1.52129e-13 -4.78585e-13 -4.78585e-13 8.46266e-14 8.46266e-14 3.98801e-13 3.98801e-13 -2.66397e-13 -2.66397e-13 -2.35196e-13 -2.35196e-13 3.53254e-13 3.53254e-13 4.22168e-14 4.22168e-14 -3.36955e-13 -3.36955e-13 1.24868e-13 1.24868e-13 2.39354e-13 2.39354e-13 -2.26687e-13 -2.26687e-13 -1.01383e-13 -1.01383e-13 2.48947e-13 2.48947e-13 -3.2266e-14 -3.2266e-14 -2.02219e-13 -2.02219e-13 1.26955e-13 1.26955e-13 1.14058e-13 1.14058e-13 -1.66171e-13 -1.66171e-13 -1.74801e-14 -1.74801e-14 1.52407e-13 1.52407e-13 -5.9729e-14 -5.9729e-14 -1.02129e-13 -1.02129e-13 1.01706e-13 1.01706e-13 3.77936e-14 3.77936e-14 -1.06073e-13 -1.06073e-13 1.9912e-14 1.9912e-14 8.12139e-14 8.12139e-14 -5.73167e-14 -5.73167e-14 -4.1219e-14 -4.1219e-14 6.96612e-14 6.96612e-14 6.17981e-16 6.17981e-16 -6.00574e-14 -6.00574e-14 2.9585e-14 2.9585e-14 3.6647e-14 3.6647e-14 -4.38924e-14 -4.38924e-14 -9.21709e-15 -9.21709e-15 4.23801e-14 4.23801e-14 -1.37388e-14 -1.37388e-14 -2.9355e-14 -2.9355e-14 2.69387e-14 2.69387e-14 1.12653e-14 1.12653e-14 -2.9005e-14 -2.9005e-14 5.49341e-15 5.49341e-15 2.20159e-14 2.20159e-14 -1.63371e-14 -1.63371e-14 -1.02162e-14 -1.02162e-14 1.9443e-14 1.9443e-14 -1.65617e-15 -1.65617e-15 -1.57401e-14 -1.57401e-14 9.90498e-15 9.90498e-15 8.06832e-15 8.06832e-15 -1.28233e-14 -1.28233e-14 1.22854e-16 1.22854e-16 1.08277e-14 1.08277e-14 -6.03731e-15 -6.03731e-15 -5.85438e-15 -5.85438e-15 8.32675e-15 8.32675e-15 3.51718e-16 3.51718e-16 -7.21227e-15 -7.21227e-15 3.69055e-15 3.69055e-15 4.01849e-15 4.01849e-15 -5.3215e-15 -5.3215e-15 -4.20107e-16 -4.20107e-16 4.68724e-15 4.68724e-15 -2.24588e-15 -2.24588e-15 -2.67223e-15 -2.67223e-15 3.35619e-15 3.35619e-15 3.71548e-16 3.71548e-16 -3.00756e-15 -3.00756e-15 1.35603e-15 1.35603e-15 1.76094e-15 1.76094e-15 -2.10995e-15 -2.10995e-15 -3.02957e-16 -3.02957e-16 1.93636e-15 1.93636e-15 -8.23154e-16 -8.23154e-16 -1.16902e-15 -1.16902e-15 1.34696e-15 1.34696e-15 2.31361e-16 2.31361e-16 -1.26964e-15 -1.26964e-15 5.21635e-16 5.21635e-16 7.82232e-16 7.82232e-16 -8.90611e-16 -8.90611e-16 -1.55692e-16 -1.55692e-16 8.50548e-16 8.50548e-16 -3.60953e-16 -3.60953e-16 -5.17234e-16 -5.17234e-16 6.13432e-16 6.13432e-16 8.04911e-17 8.04911e-17 -5.73847e-16 -5.73847e-16 2.74415e-16 2.74415e-16 3.26625e-16 3.26625e-16 -4.32504e-16 -4.32504e-16 -1.66453e-17 -1.66453e-17 3.79728e-16 3.79728e-16 -2.18422e-16 -2.18422e-16 -1.89249e-16 -1.89249e-16 3.02484e-16 3.02484e-16 -2.6351e-17 -2.6351e-17 -2.40005e-16 -2.40005e-16 1.71296e-16 1.71296e-16 9.60997e-17 9.60997e-17 -2.04141e-16 -2.04141e-16 4.63376e-17 4.63376e-17 1.42497e-16 1.42497e-16 -1.27636e-16 -1.27636e-16 -3.97192e-17 -3.97192e-17 1.31407e-16 1.31407e-16 -4.86363e-17 -4.86363e-17 -7.93596e-17 -7.93596e-17 8.98737e-17 8.98737e-17 1.03316e-17 1.03316e-17 -8.13375e-17 -8.13375e-17 4.18402e-17 4.18402e-17 4.19553e-17 4.19553e-17 -6.09985e-17 -6.09985e-17 2.72803e-18 2.72803e-18 4.94781e-17 4.94781e-17 -3.30824e-17 -3.30824e-17 -2.10733e-17 -2.10733e-17 4.11398e-17 4.11398e-17 -7.96263e-18 -7.96263e-18 -2.9943e-17 -2.9943e-17 2.57451e-17 2.57451e-17 9.19381e-18 9.19381e-18 -2.79296e-17 -2.79296e-17 1.00913e-17 1.00913e-17 1.74716e-17 1.74716e-17 -2.00706e-17 -2.00706e-17 -1.89688e-18 -1.89688e-18 1.85554e-17 1.85554e-17 -1.06704e-17 -1.06704e-17 -8.88526e-18 -8.88526e-18 1.51527e-17 1.51527e-17 -2.55182e-18 -2.55182e-18 -1.13113e-17 -1.13113e-17 9.87396e-18 9.87396e-18 2.97638e-18 2.97638e-18 -1.04924e-17 -1.04924e-17 4.64707e-18 4.64707e-18 5.76139e-18 5.76139e-18 -7.92341e-18 -7.92341e-18 5.65246e-19 5.65246e-19 6.3305e-18 6.3305e-18 -4.85109e-18 -4.85109e-18 -1.99568e-18 -1.99568e-18 5.47008e-18 5.47008e-18 -2.10109e-18 -2.10109e-18 -3.14513e-18 -3.14513e-18 3.93567e-18 3.93567e-18 -8.07233e-20 -8.07233e-20 -3.23987e-18 -3.23987e-18 2.30097e-18 2.30097e-18 1.12478e-18 1.12478e-18 -2.69858e-18 -2.69858e-18 9.1588e-19 9.1588e-19 1.6285e-18 1.6285e-18 -1.8871e-18 -1.8871e-18 -6.75611e-20 -6.75611e-20 1.6313e-18 1.6313e-18 -1.06701e-18 -1.06701e-18 -6.38912e-19 -6.38912e-19 1.34295e-18 1.34295e-18 -3.89498e-19 -3.89498e-19 -8.69051e-19 -8.69051e-19 9.37057e-19 9.37057e-19 8.54367e-20 8.54367e-20 -8.60679e-19 -8.60679e-19 5.33843e-19 5.33843e-19 3.60134e-19 3.60134e-19 -7.14931e-19 -7.14931e-19 2.01203e-19 2.01203e-19 4.71314e-19 4.71314e-19 -5.13428e-19 -5.13428e-19 -3.45758e-20 -3.45758e-20 4.682e-19 4.682e-19 -3.12189e-19 -3.12189e-19 -1.75105e-19 -1.75105e-19 3.98218e-19 3.98218e-19 -1.43069e-19 -1.43069e-19 -2.37251e-19 -2.37251e-19 2.99528e-19 2.99528e-19 -1.89576e-20 -1.89576e-20 -2.43469e-19 -2.43469e-19 1.98611e-19 1.98611e-19 6.00052e-20 6.00052e-20 -2.15539e-19 -2.15539e-19 1.11003e-19 1.11003e-19 1.00805e-19 1.00805e-19 -1.71273e-19 -1.71273e-19 4.35997e-20 4.35997e-20 1.13267e-19 1.13267e-19 -1.23388e-19 -1.23388e-19 -2.64197e-21 -2.64197e-21 1.07238e-19 1.07238e-19 -7.97459e-20 -7.97459e-20 -3.02334e-20 -3.02334e-20 9.105e-20 9.105e-20 -4.42776e-20 -4.42776e-20 -4.32484e-20 -4.32484e-20 7.09229e-20 7.09229e-20 -1.81179e-20 -1.81179e-20 -4.60322e-20 -4.60322e-20 5.09733e-20 5.09733e-20 -6.64375e-22 -6.64375e-22 -4.24525e-20 -4.24525e-20 3.35436e-20 3.35436e-20 9.57626e-21 9.57626e-21 -3.55624e-20 -3.55624e-20 1.96511e-20 1.96511e-20 1.43905e-20 1.43905e-20 -2.75367e-20 -2.75367e-20 9.42973e-21 9.42973e-21 1.54869e-20 1.54869e-20 -1.9764e-20 -1.9764e-20 2.49994e-21 2.49994e-21 1.43032e-20 1.43032e-20 -1.30094e-20 -1.30094e-20 -1.75518e-21 -1.75518e-21 1.1938e-20 1.1938e-20 -7.59009e-21 -7.59009e-21 -4.006e-21 -4.006e-21 9.16005e-21 9.16005e-21 -3.53238e-21 -3.53238e-21 -4.86795e-21 -4.86795e-21 6.4567e-21 6.4567e-21 -6.96788e-22 -6.96788e-22 -4.84943e-21 -4.84943e-21 4.09803e-21 4.09803e-21 1.13205e-21 1.13205e-21 -4.33716e-21 -4.33716e-21 2.19965e-21 2.19965e-21 2.18635e-21 2.18635e-21 -3.60376e-21 -3.60376e-21 7.76797e-22 7.76797e-22 2.68087e-21 2.68087e-21 -2.82623e-21 -2.82623e-21 -2.1354e-22 -2.1354e-22 2.79621e-21 2.79621e-21 -2.10791e-21 -2.10791e-21 -8.42405e-22 -8.42405e-22 2.67393e-21 2.67393e-21 -1.49945e-21 -1.49945e-21 -1.18885e-21 -1.18885e-21 2.41844e-21 2.41844e-21 -1.01665e-21 -1.01665e-21 -1.32796e-21 -1.32796e-21 2.10239e-21 2.10239e-21 -6.54314e-22 -6.54314e-22 -1.32463e-21 -1.32463e-21 1.77322e-21 1.77322e-21 -3.96282e-22 -3.96282e-22 -1.23126e-21 -1.23126e-21 1.45957e-21 1.45957e-21 -2.22201e-22 -2.22201e-22 -1.08781e-21 -1.08781e-21 1.17677e-21 1.17677e-21 -1.11698e-22 -1.11698e-22 -9.23085e-22 -9.23085e-22 9.31345e-22 9.31345e-22 -4.66732e-23 -4.66732e-23 -7.56673e-22 -7.56673e-22 7.24251e-22 7.24251e-22 -1.2293e-23 -1.2293e-23 -6.00899e-22 -6.00899e-22 5.53296e-22 5.53296e-22 2.82883e-24 2.82883e-24 -4.62664e-22 -4.62664e-22 4.14706e-22 4.14706e-22 6.91805e-24 6.91805e-24 -3.45005e-22 -3.45005e-22 3.04127e-22 3.04127e-22 5.55117e-24 5.55117e-24 -2.48349e-22 -2.48349e-22 2.17213e-22 2.17213e-22 2.23219e-24 2.23219e-24 -1.71481e-22 -1.71481e-22 1.49938e-22 1.49938e-22 -1.05728e-24 -1.05728e-24 -1.12251e-22 -1.12251e-22 9.8729e-23 9.8729e-23 -3.38341e-24 -3.38341e-24 -6.80852e-23 -6.80852e-23 6.04978e-23 6.04978e-23 -4.47934e-24 -4.47934e-24 -3.63235e-23 -3.63235e-23 3.26228e-23 3.26228e-23 -4.45864e-24 -4.45864e-24 -1.44383e-23 