# vtk DataFile Version 3.0
#This file was generated by the deal.II library on 2020/8/11 at 19:54:34
ASCII
DATASET UNSTRUCTURED_GRID

POINTS 4096 double
0.5 0 0
0.743896 0 0
0.743896 0 0
0.987793 0 0
0.987793 0 0
1.23169 0 0
1.23169 0 0
1.47559 0 0
1.47559 0 0
1.71948 0 0
1.71948 0 0
1.96338 0 0
1.96338 0 0
2.20728 0 0
2.20728 0 0
2.45117 0 0
2.45117 0 0
2.69507 0 0
2.69507 0 0
2.93896 0 0
2.93896 0 0
3.18286 0 0
3.18286 0 0
3.42676 0 0
3.42676 0 0
3.67065 0 0
3.67065 0 0
3.91455 0 0
3.91455 0 0
4.15845 0 0
4.15845 0 0
4.40234 0 0
4.40234 0 0
4.64624 0 0
4.64624 0 0
4.89014 0 0
4.89014 0 0
5.13403 0 0
5.13403 0 0
5.37793 0 0
5.37793 0 0
5.62183 0 0
5.62183 0 0
5.86572 0 0
5.86572 0 0
6.10962 0 0
6.10962 0 0
6.35352 0 0
6.35352 0 0
6.59741 0 0
6.59741 0 0
6.84131 0 0
6.84131 0 0
7.08521 0 0
7.08521 0 0
7.3291 0 0
7.3291 0 0
7.573 0 0
7.573 0 0
7.81689 0 0
7.81689 0 0
8.06079 0 0
8.06079 0 0
8.30469 0 0
8.30469 0 0
8.54858 0 0
8.54858 0 0
8.79248 0 0
8.79248 0 0
9.03638 0 0
9.03638 0 0
9.28027 0 0
9.28027 0 0
9.52417 0 0
9.52417 0 0
9.76807 0 0
9.76807 0 0
10.012 0 0
10.012 0 0
10.2559 0 0
10.2559 0 0
10.4998 0 0
10.4998 0 0
10.7437 0 0
10.7437 0 0
10.9875 0 0
10.9875 0 0
11.2314 0 0
11.2314 0 0
11.4753 0 0
11.4753 0 0
11.7192 0 0
11.7192 0 0
11.9631 0 0
11.9631 0 0
12.207 0 0
12.207 0 0
12.4509 0 0
12.4509 0 0
12.6948 0 0
12.6948 0 0
12.9387 0 0
12.9387 0 0
13.1826 0 0
13.1826 0 0
13.4265 0 0
13.4265 0 0
13.6704 0 0
13.6704 0 0
13.9143 0 0
13.9143 0 0
14.1582 0 0
14.1582 0 0
14.4021 0 0
14.4021 0 0
14.646 0 0
14.646 0 0
14.8899 0 0
14.8899 0 0
15.1338 0 0
15.1338 0 0
15.3777 0 0
15.3777 0 0
15.6216 0 0
15.6216 0 0
15.8655 0 0
15.8655 0 0
16.1094 0 0
16.1094 0 0
16.3533 0 0
16.3533 0 0
16.5972 0 0
16.5972 0 0
16.8411 0 0
16.8411 0 0
17.085 0 0
17.085 0 0
17.3289 0 0
17.3289 0 0
17.5728 0 0
17.5728 0 0
17.8167 0 0
17.8167 0 0
18.0605 0 0
18.0605 0 0
18.3044 0 0
18.3044 0 0
18.5483 0 0
18.5483 0 0
18.7922 0 0
18.7922 0 0
19.0361 0 0
19.0361 0 0
19.28 0 0
19.28 0 0
19.5239 0 0
19.5239 0 0
19.7678 0 0
19.7678 0 0
20.0117 0 0
20.0117 0 0
20.2556 0 0
20.2556 0 0
20.4995 0 0
20.4995 0 0
20.7434 0 0
20.7434 0 0
20.9873 0 0
20.9873 0 0
21.2312 0 0
21.2312 0 0
21.4751 0 0
21.4751 0 0
21.719 0 0
21.719 0 0
21.9629 0 0
21.9629 0 0
22.2068 0 0
22.2068 0 0
22.4507 0 0
22.4507 0 0
22.6946 0 0
22.6946 0 0
22.9385 0 0
22.9385 0 0
23.1824 0 0
23.1824 0 0
23.4263 0 0
23.4263 0 0
23.6702 0 0
23.6702 0 0
23.9141 0 0
23.9141 0 0
24.158 0 0
24.158 0 0
24.4019 0 0
24.4019 0 0
24.6458 0 0
24.6458 0 0
24.8896 0 0
24.8896 0 0
25.1335 0 0
25.1335 0 0
25.3774 0 0
25.3774 0 0
25.6213 0 0
25.6213 0 0
25.8652 0 0
25.8652 0 0
26.1091 0 0
26.1091 0 0
26.353 0 0
26.353 0 0
26.5969 0 0
26.5969 0 0
26.8408 0 0
26.8408 0 0
27.0847 0 0
27.0847 0 0
27.3286 0 0
27.3286 0 0
27.5725 0 0
27.5725 0 0
27.8164 0 0
27.8164 0 0
28.0603 0 0
28.0603 0 0
28.3042 0 0
28.3042 0 0
28.5481 0 0
28.5481 0 0
28.792 0 0
28.792 0 0
29.0359 0 0
29.0359 0 0
29.2798 0 0
29.2798 0 0
29.5237 0 0
29.5237 0 0
29.7676 0 0
29.7676 0 0
30.0115 0 0
30.0115 0 0
30.2554 0 0
30.2554 0 0
30.4993 0 0
30.4993 0 0
30.7432 0 0
30.7432 0 0
30.9871 0 0
30.9871 0 0
31.231 0 0
31.231 0 0
31.4749 0 0
31.4749 0 0
31.7188 0 0
31.7188 0 0
31.9626 0 0
31.9626 0 0
32.2065 0 0
32.2065 0 0
32.4504 0 0
32.4504 0 0
32.6943 0 0
32.6943 0 0
32.9382 0 0
32.9382 0 0
33.1821 0 0
33.1821 0 0
33.426 0 0
33.426 0 0
33.6699 0 0
33.6699 0 0
33.9138 0 0
33.9138 0 0
34.1577 0 0
34.1577 0 0
34.4016 0 0
34.4016 0 0
34.6455 0 0
34.6455 0 0
34.8894 0 0
34.8894 0 0
35.1333 0 0
35.1333 0 0
35.3772 0 0
35.3772 0 0
35.6211 0 0
35.6211 0 0
35.865 0 0
35.865 0 0
36.1089 0 0
36.1089 0 0
36.3528 0 0
36.3528 0 0
36.5967 0 0
36.5967 0 0
36.8406 0 0
36.8406 0 0
37.0845 0 0
37.0845 0 0
37.3284 0 0
37.3284 0 0
37.5723 0 0
37.5723 0 0
37.8162 0 0
37.8162 0 0
38.0601 0 0
38.0601 0 0
38.304 0 0
38.304 0 0
38.5479 0 0
38.5479 0 0
38.7917 0 0
38.7917 0 0
39.0356 0 0
39.0356 0 0
39.2795 0 0
39.2795 0 0
39.5234 0 0
39.5234 0 0
39.7673 0 0
39.7673 0 0
40.0112 0 0
40.0112 0 0
40.2551 0 0
40.2551 0 0
40.499 0 0
40.499 0 0
40.7429 0 0
40.7429 0 0
40.9868 0 0
40.9868 0 0
41.2307 0 0
41.2307 0 0
41.4746 0 0
41.4746 0 0
41.7185 0 0
41.7185 0 0
41.9624 0 0
41.9624 0 0
42.2063 0 0
42.2063 0 0
42.4502 0 0
42.4502 0 0
42.6941 0 0
42.6941 0 0
42.938 0 0
42.938 0 0
43.1819 0 0
43.1819 0 0
43.4258 0 0
43.4258 0 0
43.6697 0 0
43.6697 0 0
43.9136 0 0
43.9136 0 0
44.1575 0 0
44.1575 0 0
44.4014 0 0
44.4014 0 0
44.6453 0 0
44.6453 0 0
44.8892 0 0
44.8892 0 0
45.1331 0 0
45.1331 0 0
45.377 0 0
45.377 0 0
45.6208 0 0
45.6208 0 0
45.8647 0 0
45.8647 0 0
46.1086 0 0
46.1086 0 0
46.3525 0 0
46.3525 0 0
46.5964 0 0
46.5964 0 0
46.8403 0 0
46.8403 0 0
47.0842 0 0
47.0842 0 0
47.3281 0 0
47.3281 0 0
47.572 0 0
47.572 0 0
47.8159 0 0
47.8159 0 0
48.0598 0 0
48.0598 0 0
48.3037 0 0
48.3037 0 0
48.5476 0 0
48.5476 0 0
48.7915 0 0
48.7915 0 0
49.0354 0 0
49.0354 0 0
49.2793 0 0
49.2793 0 0
49.5232 0 0
49.5232 0 0
49.7671 0 0
49.7671 0 0
50.011 0 0
50.011 0 0
50.2549 0 0
50.2549 0 0
50.4988 0 0
50.4988 0 0
50.7427 0 0
50.7427 0 0
50.9866 0 0
50.9866 0 0
51.2305 0 0
51.2305 0 0
51.4744 0 0
51.4744 0 0
51.7183 0 0
51.7183 0 0
51.9622 0 0
51.9622 0 0
52.2061 0 0
52.2061 0 0
52.45 0 0
52.45 0 0
52.6938 0 0
52.6938 0 0
52.9377 0 0
52.9377 0 0
53.1816 0 0
53.1816 0 0
53.4255 0 0
53.4255 0 0
53.6694 0 0
53.6694 0 0
53.9133 0 0
53.9133 0 0
54.1572 0 0
54.1572 0 0
54.4011 0 0
54.4011 0 0
54.645 0 0
54.645 0 0
54.8889 0 0
54.8889 0 0
55.1328 0 0
55.1328 0 0
55.3767 0 0
55.3767 0 0
55.6206 0 0
55.6206 0 0
55.8645 0 0
55.8645 0 0
56.1084 0 0
56.1084 0 0
56.3523 0 0
56.3523 0 0
56.5962 0 0
56.5962 0 0
56.8401 0 0
56.8401 0 0
57.084 0 0
57.084 0 0
57.3279 0 0
57.3279 0 0
57.5718 0 0
57.5718 0 0
57.8157 0 0
57.8157 0 0
58.0596 0 0
58.0596 0 0
58.3035 0 0
58.3035 0 0
58.5474 0 0
58.5474 0 0
58.7913 0 0
58.7913 0 0
59.0352 0 0
59.0352 0 0
59.2791 0 0
59.2791 0 0
59.5229 0 0
59.5229 0 0
59.7668 0 0
59.7668 0 0
60.0107 0 0
60.0107 0 0
60.2546 0 0
60.2546 0 0
60.4985 0 0
60.4985 0 0
60.7424 0 0
60.7424 0 0
60.9863 0 0
60.9863 0 0
61.2302 0 0
61.2302 0 0
61.4741 0 0
61.4741 0 0
61.718 0 0
61.718 0 0
61.9619 0 0
61.9619 0 0
62.2058 0 0
62.2058 0 0
62.4497 0 0
62.4497 0 0
62.6936 0 0
62.6936 0 0
62.9375 0 0
62.9375 0 0
63.1814 0 0
63.1814 0 0
63.4253 0 0
63.4253 0 0
63.6692 0 0
63.6692 0 0
63.9131 0 0
63.9131 0 0
64.157 0 0
64.157 0 0
64.4009 0 0
64.4009 0 0
64.6448 0 0
64.6448 0 0
64.8887 0 0
64.8887 0 0
65.1326 0 0
65.1326 0 0
65.3765 0 0
65.3765 0 0
65.6204 0 0
65.6204 0 0
65.8643 0 0
65.8643 0 0
66.1082 0 0
66.1082 0 0
66.3521 0 0
66.3521 0 0
66.5959 0 0
66.5959 0 0
66.8398 0 0
66.8398 0 0
67.0837 0 0
67.0837 0 0
67.3276 0 0
67.3276 0 0
67.5715 0 0
67.5715 0 0
67.8154 0 0
67.8154 0 0
68.0593 0 0
68.0593 0 0
68.3032 0 0
68.3032 0 0
68.5471 0 0
68.5471 0 0
68.791 0 0
68.791 0 0
69.0349 0 0
69.0349 0 0
69.2788 0 0
69.2788 0 0
69.5227 0 0
69.5227 0 0
69.7666 0 0
69.7666 0 0
70.0105 0 0
70.0105 0 0
70.2544 0 0
70.2544 0 0
70.4983 0 0
70.4983 0 0
70.7422 0 0
70.7422 0 0
70.9861 0 0
70.9861 0 0
71.23 0 0
71.23 0 0
71.4739 0 0
71.4739 0 0
71.7178 0 0
71.7178 0 0
71.9617 0 0
71.9617 0 0
72.2056 0 0
72.2056 0 0
72.4495 0 0
72.4495 0 0
72.6934 0 0
72.6934 0 0
72.9373 0 0
72.9373 0 0
73.1812 0 0
73.1812 0 0
73.425 0 0
73.425 0 0
73.6689 0 0
73.6689 0 0
73.9128 0 0
73.9128 0 0
74.1567 0 0
74.1567 0 0
74.4006 0 0
74.4006 0 0
74.6445 0 0
74.6445 0 0
74.8884 0 0
74.8884 0 0
75.1323 0 0
75.1323 0 0
75.3762 0 0
75.3762 0 0
75.6201 0 0
75.6201 0 0
75.864 0 0
75.864 0 0
76.1079 0 0
76.1079 0 0
76.3518 0 0
76.3518 0 0
76.5957 0 0
76.5957 0 0
76.8396 0 0
76.8396 0 0
77.0835 0 0
77.0835 0 0
77.3274 0 0
77.3274 0 0
77.5713 0 0
77.5713 0 0
77.8152 0 0
77.8152 0 0
78.0591 0 0
78.0591 0 0
78.303 0 0
78.303 0 0
78.5469 0 0
78.5469 0 0
78.7908 0 0
78.7908 0 0
79.0347 0 0
79.0347 0 0
79.2786 0 0
79.2786 0 0
79.5225 0 0
79.5225 0 0
79.7664 0 0
79.7664 0 0
80.0103 0 0
80.0103 0 0
80.2542 0 0
80.2542 0 0
80.498 0 0
80.498 0 0
80.7419 0 0
80.7419 0 0
80.9858 0 0
80.9858 0 0
81.2297 0 0
81.2297 0 0
81.4736 0 0
81.4736 0 0
81.7175 0 0
81.7175 0 0
81.9614 0 0
81.9614 0 0
82.2053 0 0
82.2053 0 0
82.4492 0 0
82.4492 0 0
82.6931 0 0
82.6931 0 0
82.937 0 0
82.937 0 0
83.1809 0 0
83.1809 0 0
83.4248 0 0
83.4248 0 0
83.6687 0 0
83.6687 0 0
83.9126 0 0
83.9126 0 0
84.1565 0 0
84.1565 0 0
84.4004 0 0
84.4004 0 0
84.6443 0 0
84.6443 0 0
84.8882 0 0
84.8882 0 0
85.1321 0 0
85.1321 0 0
85.376 0 0
85.376 0 0
85.6199 0 0
85.6199 0 0
85.8638 0 0
85.8638 0 0
86.1077 0 0
86.1077 0 0
86.3516 0 0
86.3516 0 0
86.5955 0 0
86.5955 0 0
86.8394 0 0
86.8394 0 0
87.0833 0 0
87.0833 0 0
87.3271 0 0
87.3271 0 0
87.571 0 0
87.571 0 0
87.8149 0 0
87.8149 0 0
88.0588 0 0
88.0588 0 0
88.3027 0 0
88.3027 0 0
88.5466 0 0
88.5466 0 0
88.7905 0 0
88.7905 0 0
89.0344 0 0
89.0344 0 0
89.2783 0 0
89.2783 0 0
89.5222 0 0
89.5222 0 0
89.7661 0 0
89.7661 0 0
90.01 0 0
90.01 0 0
90.2539 0 0
90.2539 0 0
90.4978 0 0
90.4978 0 0
90.7417 0 0
90.7417 0 0
90.9856 0 0
90.9856 0 0
91.2295 0 0
91.2295 0 0
91.4734 0 0
91.4734 0 0
91.7173 0 0
91.7173 0 0
91.9612 0 0
91.9612 0 0
92.2051 0 0
92.2051 0 0
92.449 0 0
92.449 0 0
92.6929 0 0
92.6929 0 0
92.9368 0 0
92.9368 0 0
93.1807 0 0
93.1807 0 0
93.4246 0 0
93.4246 0 0
93.6685 0 0
93.6685 0 0
93.9124 0 0
93.9124 0 0
94.1562 0 0
94.1562 0 0
94.4001 0 0
94.4001 0 0
94.644 0 0
94.644 0 0
94.8879 0 0
94.8879 0 0
95.1318 0 0
95.1318 0 0
95.3757 0 0
95.3757 0 0
95.6196 0 0
95.6196 0 0
95.8635 0 0
95.8635 0 0
96.1074 0 0
96.1074 0 0
96.3513 0 0
96.3513 0 0
96.5952 0 0
96.5952 0 0
96.8391 0 0
96.8391 0 0
97.083 0 0
97.083 0 0
97.3269 0 0
97.3269 0 0
97.5708 0 0
97.5708 0 0
97.8147 0 0
97.8147 0 0
98.0586 0 0
98.0586 0 0
98.3025 0 0
98.3025 0 0
98.5464 0 0
98.5464 0 0
98.7903 0 0
98.7903 0 0
99.0342 0 0
99.0342 0 0
99.2781 0 0
99.2781 0 0
99.522 0 0
99.522 0 0
99.7659 0 0
99.7659 0 0
100.01 0 0
100.01 0 0
100.254 0 0
100.254 0 0
100.498 0 0
100.498 0 0
100.741 0 0
100.741 0 0
100.985 0 0
100.985 0 0
101.229 0 0
101.229 0 0
101.473 0 0
[...]
POINT_DATA 4096
SCALARS solution_0 double 1
LOOKUP_TABLE default
0.0568944 -3.43108e+13 -3.43108e+13 -1.35201e+13 -1.35201e+13 -8.82427e+12 -8.82427e+12 -6.52277e+12 -6.52277e+12 -5.10447e+12 -5.10447e+12 -4.12771e+12 -4.12771e+12 -3.40977e+12 -3.40977e+12 -2.8592e+12 -2.8592e+12 -2.42429e+12 -2.42429e+12 -2.0732e+12 -2.0732e+12 -1.78505e+12 -1.78505e+12 -1.54548e+12 -1.54548e+12 -1.34422e+12 -1.34422e+12 -1.1737e+12 -1.1737e+12 -1.02821e+12 -1.02821e+12 -9.03335e+11 -9.03335e+11 -7.95609e+11 -7.95609e+11 -7.02271e+11 -7.02271e+11 -6.21094e+11 -6.21094e+11 -5.50259e+11 -5.50259e+11 -4.88266e+11 -4.88266e+11 -4.33871e+11 -4.33871e+11 -3.86032e+11 -3.86032e+11 -3.43871e+11 -3.43871e+11 -3.06643e+11 -3.06643e+11 -2.73716e+11 -2.73716e+11 -2.44547e+11 -2.44547e+11 -2.18671e+11 -2.18671e+11 -1.95685e+11 -1.95685e+11 -1.75243e+11 -1.75243e+11 -1.57043e+11 -1.57043e+11 -1.40823e+11 -1.40823e+11 -1.26353e+11 -1.26353e+11 -1.13433e+11 -1.13433e+11 -1.01888e+11 -1.01888e+11 -9.15626e+10 -9.15626e+10 -8.23224e+10 -8.23224e+10 -7.40474e+10 -7.40474e+10 -6.66321e+10 -6.66321e+10 -5.99832e+10 -5.99832e+10 -5.40181e+10 -5.40181e+10 -4.86636e+10 -4.86636e+10 -4.38549e+10 -4.38549e+10 -3.95342e+10 -3.95342e+10 -3.56502e+10 -3.56502e+10 -3.21574e+10 -3.21574e+10 -2.9015e+10 -2.9015e+10 -2.61867e+10 -2.61867e+10 -2.36404e+10 -2.36404e+10 -2.13469e+10 -2.13469e+10 -1.92805e+10 -1.92805e+10 -1.74182e+10 -1.74182e+10 -1.57393e+10 -1.57393e+10 -1.42252e+10 -1.42252e+10 -1.28594e+10 -1.28594e+10 -1.1627e+10 -1.1627e+10 -1.05147e+10 -1.05147e+10 -9.51059e+09 -9.51059e+09 -8.60388e+09 -8.60388e+09 -7.78494e+09 -7.78494e+09 -7.04512e+09 -7.04512e+09 -6.37663e+09 -6.37663e+09 -5.77246e+09 -5.77246e+09 -5.22632e+09 -5.22632e+09 -4.73254e+09 -4.73254e+09 -4.28601e+09 -4.28601e+09 -3.88214e+09 -3.88214e+09 -3.5168e+09 -3.5168e+09 -3.18624e+09 -3.18624e+09 -2.88712e+09 -2.88712e+09 -2.61639e+09 -2.61639e+09 -2.37133e+09 -2.37133e+09 -2.14947e+09 -2.14947e+09 -1.94858e+09 -1.94858e+09 -1.76666e+09 -1.76666e+09 -1.60189e+09 -1.60189e+09 -1.45264e+09 -1.45264e+09 -1.31743e+09 -1.31743e+09 -1.19492e+09 -1.19492e+09 -1.0839e+09 -1.0839e+09 -9.83288e+08 -9.83288e+08 -8.92097e+08 -8.92097e+08 -8.09433e+08 -8.09433e+08 -7.34493e+08 -7.34493e+08 -6.66547e+08 -6.66547e+08 -6.04936e+08 -6.04936e+08 -5.49063e+08 -5.49063e+08 -4.9839e+08 -4.9839e+08 -4.52428e+08 -4.52428e+08 -4.10736e+08 -4.10736e+08 -3.72912e+08 -3.72912e+08 -3.38596e+08 -3.38596e+08 -3.07459e+08 -3.07459e+08 -2.79205e+08 -2.79205e+08 -2.53564e+08 -2.53564e+08 -2.30293e+08 -2.30293e+08 -2.09171e+08 -2.09171e+08 -1.89998e+08 -1.89998e+08 -1.72593e+08 -1.72593e+08 -1.56792e+08 -1.56792e+08 -1.42446e+08 -1.42446e+08 -1.2942e+08 -1.2942e+08 -1.17592e+08 -1.17592e+08 -1.06851e+08 -1.06851e+08 -9.70958e+07 -9.70958e+07 -8.82363e+07 -8.82363e+07 -8.01894e+07 -8.01894e+07 -7.28801e+07 -7.28801e+07 -6.62404e+07 -6.62404e+07 -6.02086e+07 -6.02086e+07 -5.47287e+07 -5.47287e+07 -4.975e+07 -4.975e+07 -4.52262e+07 -4.52262e+07 -4.11158e+07 -4.11158e+07 -3.73806e+07 -3.73806e+07 -3.39862e+07 -3.39862e+07 -3.09014e+07 -3.09014e+07 -2.80978e+07 -2.80978e+07 -2.55497e+07 -2.55497e+07 -2.32336e+07 -2.32336e+07 -2.11283e+07 -2.11283e+07 -1.92146e+07 -1.92146e+07 -1.74749e+07 -1.74749e+07 -1.58933e+07 -1.58933e+07 -1.44555e+07 -1.44555e+07 -1.31482e+07 -1.31482e+07 -1.19595e+07 -1.19595e+07 -1.08788e+07 -1.08788e+07 -9.896e+06 -9.896e+06 -9.00235e+06 -9.00235e+06 -8.18968e+06 -8.18968e+06 -7.45063e+06 -7.45063e+06 -6.7785e+06 -6.7785e+06 -6.16721e+06 -6.16721e+06 -5.61123e+06 -5.61123e+06 -5.10553e+06 -5.10553e+06 -4.64556e+06 -4.64556e+06 -4.22716e+06 -4.22716e+06 -3.84656e+06 -3.84656e+06 -3.50034e+06 -3.50034e+06 -3.18537e+06 -3.18537e+06 -2.89883e+06 -2.89883e+06 -2.63815e+06 -2.63815e+06 -2.40097e+06 -2.40097e+06 -2.18518e+06 -2.18518e+06 -1.98884e+06 -1.98884e+06 -1.81019e+06 -1.81019e+06 -1.64764e+06 -1.64764e+06 -1.49972e+06 -1.49972e+06 -1.36511e+06 -1.36511e+06 -1.24262e+06 -1.24262e+06 -1.13115e+06 -1.13115e+06 -1.02971e+06 -1.02971e+06 -937387 -937387 -853363 -853363 -776889 -776889 -707286 -707286 -643933 -643933 -586269 -586269 -533782 -533782 -486004 -486004 -442513 -442513 -402923 -402923 -366883 -366883 -334074 -334074 -304205 -304205 -277013 -277013 -252257 -252257 -229718 -229718 -209197 -209197 -190513 -190513 -173501 -173501 -158012 -158012 -143908 -143908 -131066 -131066 -119371 -119371 -108723 -108723 -99025.9 -99025.9 -90195.6 -90195.6 -82154.1 -82154.1 -74831 -74831 -68161.9 -68161.9 -62088.2 -62088.2 -56556.7 -56556.7 -51519 -51519 -46930.7 -46930.7 -42751.8 -42751.8 -38945.7 -38945.7 -35479 -35479 -32321.4 -32321.4 -29445.3 -29445.3 -26825.6 -26825.6 -24439.4 -24439.4 -22265.7 -22265.7 -20285.7 -20285.7 -18482.1 -18482.1 -16839 -16839 -15342.3 -15342.3 -13978.8 -13978.8 -12736.7 -12736.7 -11605.1 -11605.1 -10574.2 -10574.2 -9635.05 -9635.05 -8779.42 -8779.42 -7999.87 -7999.87 -7289.65 -7289.65 -6642.57 -6642.57 -6053.02 -6053.02 -5515.86 -5515.86 -5026.44 -5026.44 -4580.51 -4580.51 -4174.19 -4174.19 -3803.96 -3803.96 -3466.62 -3466.62 -3159.23 -3159.23 -2879.14 -2879.14 -2623.91 -2623.91 -2391.34 -2391.34 -2179.41 -2179.41 -1986.28 -1986.28 -1810.29 -1810.29 -1649.91 -1649.91 -1503.76 -1503.76 -1370.57 -1370.57 -1249.2 -1249.2 -1138.58 -1138.58 -1037.77 -1037.77 -945.901 -945.901 -862.172 -862.172 -785.863 -785.863 -716.316 -716.316 -652.931 -652.931 -595.161 -595.161 -542.508 -542.508 -494.519 -494.519 -450.779 -450.779 -410.913 -410.913 -374.576 -374.576 -341.456 -341.456 -311.267 -311.267 -283.751 -283.751 -258.669 -258.669 -235.807 -235.807 -214.968 -214.968 -195.972 -195.972 -178.657 -178.657 -162.873 -162.873 -148.485 -148.485 -135.369 -135.369 -123.413 -123.413 -112.514 -112.514 -102.579 -102.579 -93.5213 -93.5213 -85.2645 -85.2645 -77.7374 -77.7374 -70.8754 -70.8754 -64.6197 -64.6197 -58.9167 -58.9167 -53.7174 -53.7174 -48.9775 -48.9775 -44.6561 -44.6561 -40.7164 -40.7164 -37.1246 -37.1246 -33.8499 -33.8499 -30.8643 -30.8643 -28.1423 -28.1423 -25.6605 -25.6605 -23.3979 -23.3979 -21.3349 -21.3349 -19.4539 -19.4539 -17.7389 -17.7389 -16.1753 -16.1753 -14.7496 -14.7496 -13.4496 -13.4496 -12.2643 -12.2643 -11.1836 -11.1836 -10.1982 -10.1982 -9.29965 -9.29965 -8.48036 -8.48036 -7.73329 -7.73329 -7.05208 -7.05208 -6.43092 -6.43092 -5.8645 -5.8645 -5.34799 -5.34799 -4.87698 -4.87698 -4.44745 -4.44745 -4.05573 -4.05573 -3.69847 -3.69847 -3.37262 -3.37262 -3.07539 -3.07539 -2.80422 -2.80422 -2.55681 -2.55681 -2.33101 -2.33101 -2.12491 -2.12491 -1.93673 -1.93673 -1.76488 -1.76488 -1.60792 -1.60792 -1.46452 -1.46452 -1.33354 -1.33354 -1.21393 -1.21393 -1.10479 -1.10479 -1.00532 -1.00532 -0.914847 -0.914847 -0.832779 -0.832779 -0.758609 -0.758609 -0.691886 -0.691886 -0.632192 -0.632192 -0.579117 -0.579117 -0.532229 -0.532229 -0.491057 -0.491057 -0.455073 -0.455073 -0.423689 -0.423689 -0.396262 -0.396262 -0.37212 -0.37212 -0.350589 -0.350589 -0.331039 -0.331039 -0.312918 -0.312918 -0.295792 -0.295792 -0.279363 -0.279363 -0.263471 -0.263471 -0.248079 -0.248079 -0.233233 -0.233233 -0.219023 -0.219023 -0.205534 -0.205534 -0.192812 -0.192812 -0.180849 -0.180849 -0.169588 -0.169588 -0.158945 -0.158945 -0.148844 -0.148844 -0.139248 -0.139248 -0.13017 -0.13017 -0.121674 -0.121674 -0.113842 -0.113842 -0.10674 -0.10674 -0.100378 -0.100378 -0.0946899 -0.0946899 -0.089537 -0.089537 -0.0847403 -0.0847403 -0.0801275 -0.0801275 -0.0755799 -0.0755799 -0.0710618 -0.0710618 -0.0666198 -0.0666198 -0.0623512 -0.0623512 -0.0583534 -0.0583534 -0.054672 -0.054672 -0.0512673 -0.0512673 -0.0480114 -0.0480114 -0.0447155 -0.0447155 -0.0411764 -0.0411764 -0.0372234 -0.0372234 -0.0327478 -0.0327478 -0.0277052 -0.0277052 -0.0220878 -0.0220878 -0.0158762 -0.0158762 -0.00898216 -0.00898216 -0.00119613 -0.00119613 0.00784884 0.00784884 0.0186898 0.0186898 0.0320213 0.0320213 0.0486638 0.0486638 0.0695285 0.0695285 0.0956005 0.0956005 0.127962 0.127962 0.167864 0.167864 0.216821 0.216821 0.276685 0.276685 0.349635 0.349635 0.438029 0.438029 0.544115 0.544115 0.669659 0.669659 0.815578 0.815578 0.981671 0.981671 1.16648 1.16648 1.36723 1.36723 1.5798 1.5798 1.7986 1.7986 2.01637 2.01637 2.22407 2.22407 2.41105 2.41105 2.56568 2.56568 2.67632 2.67632 2.73272 2.73272 2.72719 2.72719 2.6556 2.6556 2.51773 2.51773 2.31744 2.31744 2.06242 2.06242 1.76409 1.76409 1.43723 1.43723 1.09942 1.09942 0.769745 0.769745 0.466974 0.466974 0.207316 0.207316 0.0023851 0.0023851 -0.142074 -0.142074 -0.226422 -0.226422 -0.256408 -0.256408 -0.24191 -0.24191 -0.195514 -0.195514 -0.13114 -0.13114 -0.0626266 -0.0626266 -0.00215827 -0.00215827 0.0413939 0.0413939 0.0638004 0.0638004 0.0659119 0.0659119 0.0528313 0.0528313 0.0319598 0.0319598 0.0105881 0.0105881 -0.00606547 -0.00606547 -0.0157051 -0.0157051 -0.0186037 -0.0186037 -0.016512 -0.016512 -0.0115283 -0.0115283 -0.00543507 -0.00543507 0.000418579 0.000418579 0.00497312 0.00497312 0.00740413 0.00740413 0.00730008 0.00730008 0.00492561 0.00492561 0.00128735 0.00128735 -0.00217116 -0.00217116 -0.00415713 -0.00415713 -0.00409501 -0.00409501 -0.00235074 -0.00235074 1.5127e-05 1.5127e-05 0.00182327 0.00182327 0.00235796 0.00235796 0.00164842 0.00164842 0.000330736 0.000330736 -0.000786552 -0.000786552 -0.00117937 -0.00117937 -0.000832456 -0.000832456 -0.000140188 -0.000140188 0.000407471 0.000407471 0.000533087 0.000533087 0.000288828 0.000288828 -5.55395e-05 -5.55395e-05 -0.000239662 -0.000239662 -0.000183936 -0.000183936 -5.51254e-07 -5.51254e-07 0.000132331 0.000132331 0.000117564 0.000117564 -3.72332e-06 -3.72332e-06 -0.000110746 -0.000110746 -0.000112883 -0.000112883 -1.79418e-05 -1.79418e-05 8.74479e-05 8.74479e-05 0.000116954 0.000116954 5.31181e-05 5.31181e-05 -4.64831e-05 -4.64831e-05 -0.000102147 -0.000102147 -7.58596e-05 -7.58596e-05 4.13031e-06 4.13031e-06 7.1985e-05 7.1985e-05 7.8248e-05 7.8248e-05 2.5436e-05 2.5436e-05 -3.96255e-05 -3.96255e-05 -6.62802e-05 -6.62802e-05 -3.91149e-05 -3.91149e-05 1.41621e-05 1.41621e-05 4.90344e-05 4.90344e-05 4.08287e-05 4.08287e-05 1.83475e-06 1.83475e-06 -3.28199e-05 -3.28199e-05 -3.60756e-05 -3.60756e-05 -9.82091e-06 -9.82091e-06 2.03102e-05 2.03102e-05 2.90848e-05 2.90848e-05 1.2503e-05 1.2503e-05 -1.17694e-05 -1.17694e-05 -2.22465e-05 -2.22465e-05 -1.22908e-05 -1.22908e-05 6.41989e-06 6.41989e-06 1.65549e-05 1.65549e-05 1.08182e-05 1.08182e-05 -3.29207e-06 -3.29207e-06 -1.22107e-05 -1.22107e-05 -9.00476e-06 -9.00476e-06 1.58531e-06 1.58531e-06 9.06123e-06 9.06123e-06 7.27949e-06 7.27949e-06 -7.42329e-07 -7.42329e-07 -6.84482e-06 -6.84482e-06 -5.78936e-06 -5.78936e-06 4.06628e-07 4.06628e-07 5.30117e-06 5.30117e-06 4.54582e-06 4.54582e-06 -3.55943e-07 -3.55943e-07 -4.21226e-06 -4.21226e-06 -3.51172e-06 -3.51172e-06 4.49051e-07 4.49051e-07 3.41274e-06 3.41274e-06 2.64549e-06 2.64549e-06 -5.93596e-07 -5.93596e-07 -2.78833e-06 -2.78833e-06 -1.91776e-06 -1.91776e-06 7.3023e-07 7.3023e-07 2.26872e-06 2.26872e-06 1.31231e-06 1.31231e-06 -8.25295e-07 -8.25295e-07 -1.81708e-06 -1.81708e-06 -8.20165e-07 -8.20165e-07 8.65709e-07 8.65709e-07 1.41815e-06 1.41815e-06 4.33291e-07 4.33291e-07 -8.52989e-07 -8.52989e-07 -1.06725e-06 -1.06725e-06 -1.41222e-07 -1.41222e-07 7.96422e-07 7.96422e-07 7.62768e-07 7.62768e-07 -6.8623e-08 -6.8623e-08 -7.07208e-07 -7.07208e-07 -5.02923e-07 -5.02923e-07 2.08699e-07 2.08699e-07 5.95285e-07 5.95285e-07 2.85822e-07 2.85822e-07 -2.89473e-07 -2.89473e-07 -4.6911e-07 -4.6911e-07 -1.1072e-07 -1.1072e-07 3.194e-07 3.194e-07 3.3709e-07 3.3709e-07 -2.16585e-08 -2.16585e-08 -3.06574e-07 -3.06574e-07 -2.08731e-07 -2.08731e-07 1.10391e-07 1.10391e-07 2.60619e-07 2.60619e-07 9.42719e-08 9.42719e-08 -1.56497e-07 -1.56497e-07 -1.93406e-07 -1.93406e-07 -2.90455e-09 -2.90455e-09 1.6455e-07 1.6455e-07 1.18114e-07 1.18114e-07 -5.93181e-08 -5.93181e-08 -1.42876e-07 -1.42876e-07 -4.72752e-08 -4.72752e-08 9.078e-08 9.078e-08 1.02403e-07 1.02403e-07 -9.16989e-09 -9.16989e-09 -9.44135e-08 -9.44135e-08 -5.48783e-08 -5.48783e-08 4.51693e-08 4.51693e-08 7.69089e-08 7.69089e-08 1.10761e-08 1.10761e-08 -5.91401e-08 -5.91401e-08 -4.74125e-08 -4.74125e-08 2.08191e-08 2.08191e-08 5.39403e-08 5.39403e-08 1.58144e-08 1.58144e-08 -3.65681e-08 -3.65681e-08 -3.60905e-08 -3.60905e-08 9.3511e-09 9.3511e-09 3.66124e-08 3.66124e-08 1.40041e-08 1.40041e-08 -2.29693e-08 -2.29693e-08 -2.55793e-08 -2.55793e-08 4.55836e-09 4.55836e-09 2.44788e-08 2.44788e-08 1.03336e-08 1.03336e-08 -1.48695e-08 -1.48695e-08 -1.73232e-08 -1.73232e-08 2.74729e-09 2.74729e-09 1.62765e-08 1.62765e-08 6.8692e-09 6.8692e-09 -9.95676e-09 -9.95676e-09 -1.14167e-08 -1.14167e-08 2.08908e-09 2.08908e-09 1.0875e-08 1.0875e-08 4.24618e-09 4.24618e-09 -6.93388e-09 -6.93388e-09 -7.44121e-09 -7.44121e-09 1.86526e-09 1.86526e-09 7.40488e-09 7.40488e-09 2.40904e-09 2.40904e-09 -5.09199e-09 -5.09199e-09 -4.81226e-09 -4.81226e-09 1.85931e-09 1.85931e-09 5.16814e-09 5.16814e-09 1.08147e-09 1.08147e-09 -3.95811e-09 -3.95811e-09 -2.97702e-09 -2.97702e-09 1.96392e-09 1.96392e-09 3.60046e-09 3.60046e-09 5.44387e-11 5.44387e-11 -3.1429e-09 -3.1429e-09 -1.56312e-09 -1.56312e-09 2.02409e-09 2.02409e-09 2.32482e-09 2.32482e-09 -7.05538e-10 -7.05538e-10 -2.36403e-09 -2.36403e-09 -4.42749e-10 -4.42749e-10 1.87493e-09 1.87493e-09 1.20546e-09 1.20546e-09 -1.11744e-09 -1.11744e-09 -1.52375e-09 -1.52375e-09 3.32931e-10 3.32931e-10 1.45765e-09 1.45765e-09 3.06225e-10 3.06225e-10 -1.13282e-09 -1.13282e-09 -7.1301e-10 -7.1301e-10 6.90562e-10 6.90562e-10 8.76592e-10 8.76592e-10 -2.51726e-10 -2.51726e-10 -8.39163e-10 -8.39163e-10 -1.021e-10 -1.021e-10 6.69258e-10 6.69258e-10 3.3223e-10 3.3223e-10 -4.38846e-10 -4.38846e-10 -4.36137e-10 -4.36137e-10 2.07833e-10 2.07833e-10 4.35618e-10 4.35618e-10 -1.65505e-11 -1.65505e-11 -3.64284e-10 -3.64284e-10 -1.15175e-10 -1.15175e-10 2.57183e-10 2.57183e-10 1.84616e-10 1.84616e-10 -1.43889e-10 -1.43889e-10 -2.00716e-10 -2.00716e-10 4.50954e-11 4.50954e-11 1.78439e-10 1.78439e-10 2.7915e-11 2.7915e-11 -1.34076e-10 -1.34076e-10 -7.19215e-11 -7.19215e-11 8.20115e-11 8.20115e-11 8.94838e-11 8.94838e-11 -3.29967e-11 -3.29967e-11 -8.64943e-11 -8.64943e-11 -6.32743e-12 -6.32743e-12 7.00597e-11 7.00597e-11 3.30501e-11 3.30501e-11 -4.6953e-11 -4.6953e-11 -4.71388e-11 -4.71388e-11 2.26834e-11 2.26834e-11 5.04387e-11 5.04387e-11 -1.10477e-12 -1.10477e-12 -4.57421e-11 -4.57421e-11 -1.55777e-11 -1.55777e-11 3.60519e-11 3.60519e-11 2.65541e-11 2.65541e-11 -2.40811e-11 -2.40811e-11 -3.20424e-11 -3.20424e-11 1.19753e-11 1.19753e-11 3.29052e-11 3.29052e-11 -1.21779e-12 -1.21779e-12 -3.03147e-11 -3.03147e-11 -7.34059e-12 -7.34059e-12 2.54957e-11 2.54957e-11 1.33752e-11 1.33752e-11 -1.95533e-11 -1.95533e-11 -1.69506e-11 -1.69506e-11 1.33786e-11 1.33786e-11 1.8382e-11 1.8382e-11 -7.61498e-12 -7.61498e-12 -1.81149e-11 -1.81149e-11 2.66708e-12 2.66708e-12 1.66314e-11 1.66314e-11 1.26467e-12 1.26467e-12 -1.43858e-11 -1.43858e-11 -4.13786e-12 -4.13786e-12 1.17657e-11 1.17657e-11 6.02018e-12 6.02018e-12 -9.07432e-12 -9.07432e-12 -7.04631e-12 -7.04631e-12 6.52899e-12 6.52899e-12 7.38275e-12 7.38275e-12 -4.26829e-12 -4.26829e-12 -7.20164e-12 -7.20164e-12 2.36539e-12 2.36539e-12 6.66331e-12 6.66331e-12 -8.4306e-13 -8.4306e-13 -5.90599e-12 -5.90599e-12 -3.11644e-13 -3.11644e-13 5.04135e-12 5.04135e-12 1.13449e-12 1.13449e-12 -4.15403e-12 -4.15403e-12 -1.67359e-12 -1.67359e-12 3.30376e-12 3.30376e-12 1.98147e-12 1.98147e-12 -2.52901e-12 -2.52901e-12 -2.10958e-12 -2.10958e-12 1.85111e-12 1.85111e-12 2.1048e-12 2.1048e-12 -1.27841e-12 -1.27841e-12 -2.0075e-12 -2.0075e-12 8.09992e-13 8.09992e-13 1.85091e-12 1.85091e-12 -4.38868e-13 -4.38868e-13 -1.66117e-12 -1.66117e-12 1.5448e-13 1.5448e-13 1.45797e-12 1.45797e-12 5.53907e-14 5.53907e-14 -1.25542e-12 -1.25542e-12 -2.03268e-13 -2.03268e-13 1.06303e-12 1.06303e-12 3.01079e-13 3.01079e-13 -8.86651e-13 -8.86651e-13 -3.59613e-13 -3.59613e-13 7.29375e-13 7.29375e-13 3.88254e-13 3.88254e-13 -5.92281e-13 -5.92281e-13 -3.94894e-13 -3.94894e-13 4.75052e-13 4.75052e-13 3.85985e-13 3.85985e-13 -3.76474e-13 -3.76474e-13 -3.66657e-13 -3.66657e-13 2.9481e-13 2.9481e-13 3.40881e-13 3.40881e-13 -2.28075e-13 -2.28075e-13 -3.1165e-13 -3.1165e-13 1.74231e-13 1.74231e-13 2.81146e-13 2.81146e-13 -1.31311e-13 -1.31311e-13 -2.50908e-13 -2.50908e-13 9.75001e-14 9.75001e-14 2.21963e-13 2.21963e-13 -7.11783e-14 -7.11783e-14 -1.94955e-13 -1.94955e-13 5.09328e-14 5.09328e-14 1.70239e-13 1.70239e-13 -3.55587e-14 -3.55587e-14 -1.47964e-13 -1.47964e-13 2.40457e-14 2.40457e-14 1.28131e-13 1.28131e-13 -1.55602e-14 -1.55602e-14 -1.10648e-13 -1.10648e-13 9.42328e-15 9.42328e-15 9.5359e-14 9.5359e-14 -5.08876e-15 -5.08876e-15 -8.2077e-14 -8.2077e-14 2.12238e-15 2.12238e-15 7.05989e-14 7.05989e-14 -1.82288e-16 -1.82288e-16 -6.07207e-14 -6.07207e-14 -9.98065e-16 -9.98065e-16 5.22452e-14 5.22452e-14 1.62467e-15 1.62467e-15 -4.49881e-14 -4.49881e-14 -1.85547e-15 -1.85547e-15 3.87806e-14 3.87806e-14 1.81068e-15 1.81068e-15 -3.34713e-14 -3.34713e-14 -1.58119e-15 -1.58119e-15 2.89262e-14 2.89262e-14 1.2353e-15 1.2353e-15 -2.50282e-14 -2.50282e-14 -8.24046e-16 -8.24046e-16 2.16765e-14 2.16765e-14 3.85257e-16 3.85257e-16 -1.87847e-14 -1.87847e-14 5.32678e-17 5.32678e-17 1.62802e-14 1.62802e-14 -4.7141e-16 -4.7141e-16 -1.4102e-14 -1.4102e-14 8.54972e-16 8.54972e-16 1.21995e-14 1.21995e-14 -1.19438e-15 -1.19438e-15 -1.05314e-14 -1.05314e-14 1.48371e-15 1.48371e-15 9.06377e-15 9.06377e-15 -1.71996e-15 -1.71996e-15 -7.7692e-15 -7.7692e-15 1.90252e-15 1.90252e-15 6.62543e-15 6.62543e-15 -2.03264e-15 -2.03264e-15 -5.61444e-15 -5.61444e-15 2.11312e-15 2.11312e-15 4.72146e-15 4.72146e-15 -2.14789e-15 -2.14789e-15 -3.93424e-15 -3.93424e-15 2.14173e-15 2.14173e-15 3.24243e-15 3.24243e-15 -2.09994e-15 -2.09994e-15 -2.63705e-15 -2.63705e-15 2.02808e-15 2.02808e-15 2.11012e-15 2.11012e-15 -1.93173e-15 -1.93173e-15 -1.65439e-15 -1.65439e-15 1.81625e-15 1.81625e-15 1.26316e-15 1.26316e-15 -1.68669e-15 -1.68669e-15 -9.30197e-16 -9.30197e-16 1.54761e-15 1.54761e-15 6.4963e-16 6.4963e-16 -1.40304e-15 -1.40304e-15 -4.15979e-16 -4.15979e-16 1.25646e-15 1.25646e-15 2.24137e-16 2.24137e-16 -1.11084e-15 -1.11084e-15 -6.93717e-17 -6.93717e-17 9.686e-16 9.686e-16 -5.26745e-17 -5.26745e-17 -8.31758e-16 -8.31758e-16 1.45997e-16 1.45997e-16 7.01933e-16 7.01933e-16 -2.14257e-16 -2.14257e-16 -5.8042e-16 -5.8042e-16 2.6081e-16 2.6081e-16 4.68237e-16 4.68237e-16 -2.88752e-16 -2.88752e-16 -3.66159e-16 -3.66159e-16 3.00954e-16 3.00954e-16 2.74737e-16 2.74737e-16 -3.00095e-16 -3.00095e-16 -1.94306e-16 -1.94306e-16 2.88686e-16 2.88686e-16 1.24988e-16 1.24988e-16 -2.69079e-16 -2.69079e-16 -6.66866e-17 -6.66866e-17 2.43465e-16 2.43465e-16 1.90885e-17 1.90885e-17 -2.1386e-16 -2.1386e-16 1.83296e-17 1.83296e-17 1.82083e-16 1.82083e-16 -4.62848e-17 -4.62848e-17 -1.49735e-16 -1.49735e-16 6.56616e-17 6.56616e-17 1.18176e-16 1.18176e-16 -7.74755e-17 -7.74755e-17 -8.85108e-17 -8.85108e-17 8.28296e-17 8.28296e-17 6.15817e-17 6.15817e-17 -8.28686e-17 -8.28686e-17 -3.79749e-17 -3.79749e-17 7.87324e-17 7.87324e-17 1.80352e-17 1.80352e-17 -7.15136e-17 -7.15136e-17 -1.88971e-18 -1.88971e-18 6.22223e-17 6.22223e-17 -1.05204e-17 -1.05204e-17 -5.17594e-17 -5.17594e-17 1.94052e-17 1.94052e-17 4.08984e-17 4.08984e-17 -2.50902e-17 -2.50902e-17 -3.02767e-17 -3.02767e-17 2.79816e-17 2.79816e-17 2.0394e-17 2.0394e-17 -2.85341e-17 -2.85341e-17 -1.16164e-17 -1.16164e-17 2.72237e-17 2.72237e-17 4.18565e-18 4.18565e-18 -2.45237e-17 -2.45237e-17 1.7693e-18 1.7693e-18 2.08856e-17 2.08856e-17 -6.21868e-18 -6.21868e-18 -1.67229e-17 -1.67229e-17 9.21679e-18 9.21679e-18 1.23994e-17 1.23994e-17 -1.08863e-17 -1.08863e-17 -8.21974e-18 -8.21974e-18 1.14017e-17 1.14017e-17 4.42391e-18 4.42391e-18 -1.09727e-17 -1.09727e-17 -1.18437e-18 -1.18437e-18 9.82806e-18 9.82806e-18 -1.39309e-18 -1.39309e-18 -8.19906e-18 -8.19906e-18 3.26529e-18 3.26529e-18 6.30588e-18 6.30588e-18 -4.4446e-18 -4.4446e-18 -4.34524e-18 -4.34524e-18 4.98928e-18 4.98928e-18 2.48133e-18 2.48133e-18 -4.99215e-18 -4.99215e-18 -8.39846e-19 -8.39846e-19 4.56835e-18 4.56835e-18 -4.94357e-19 -4.94357e-19 -3.84333e-18 -3.843