# vtk DataFile Version 3.0
#This file was generated by the deal.II library on 2020/8/11 at 19:53:51
ASCII
DATASET UNSTRUCTURED_GRID

POINTS 4096 double
0.5 0 0
0.743896 0 0
0.743896 0 0
0.987793 0 0
0.987793 0 0
1.23169 0 0
1.23169 0 0
1.47559 0 0
1.47559 0 0
1.71948 0 0
1.71948 0 0
1.96338 0 0
1.96338 0 0
2.20728 0 0
2.20728 0 0
2.45117 0 0
2.45117 0 0
2.69507 0 0
2.69507 0 0
2.93896 0 0
2.93896 0 0
3.18286 0 0
3.18286 0 0
3.42676 0 0
3.42676 0 0
3.67065 0 0
3.67065 0 0
3.91455 0 0
3.91455 0 0
4.15845 0 0
4.15845 0 0
4.40234 0 0
4.40234 0 0
4.64624 0 0
4.64624 0 0
4.89014 0 0
4.89014 0 0
5.13403 0 0
5.13403 0 0
5.37793 0 0
5.37793 0 0
5.62183 0 0
5.62183 0 0
5.86572 0 0
5.86572 0 0
6.10962 0 0
6.10962 0 0
6.35352 0 0
6.35352 0 0
6.59741 0 0
6.59741 0 0
6.84131 0 0
6.84131 0 0
7.08521 0 0
7.08521 0 0
7.3291 0 0
7.3291 0 0
7.573 0 0
7.573 0 0
7.81689 0 0
7.81689 0 0
8.06079 0 0
8.06079 0 0
8.30469 0 0
8.30469 0 0
8.54858 0 0
8.54858 0 0
8.79248 0 0
8.79248 0 0
9.03638 0 0
9.03638 0 0
9.28027 0 0
9.28027 0 0
9.52417 0 0
9.52417 0 0
9.76807 0 0
9.76807 0 0
10.012 0 0
10.012 0 0
10.2559 0 0
10.2559 0 0
10.4998 0 0
10.4998 0 0
10.7437 0 0
10.7437 0 0
10.9875 0 0
10.9875 0 0
11.2314 0 0
11.2314 0 0
11.4753 0 0
11.4753 0 0
11.7192 0 0
11.7192 0 0
11.9631 0 0
11.9631 0 0
12.207 0 0
12.207 0 0
12.4509 0 0
12.4509 0 0
12.6948 0 0
12.6948 0 0
12.9387 0 0
12.9387 0 0
13.1826 0 0
13.1826 0 0
13.4265 0 0
13.4265 0 0
13.6704 0 0
13.6704 0 0
13.9143 0 0
13.9143 0 0
14.1582 0 0
14.1582 0 0
14.4021 0 0
14.4021 0 0
14.646 0 0
14.646 0 0
14.8899 0 0
14.8899 0 0
15.1338 0 0
15.1338 0 0
15.3777 0 0
15.3777 0 0
15.6216 0 0
15.6216 0 0
15.8655 0 0
15.8655 0 0
16.1094 0 0
16.1094 0 0
16.3533 0 0
16.3533 0 0
16.5972 0 0
16.5972 0 0
16.8411 0 0
16.8411 0 0
17.085 0 0
17.085 0 0
17.3289 0 0
17.3289 0 0
17.5728 0 0
17.5728 0 0
17.8167 0 0
17.8167 0 0
18.0605 0 0
18.0605 0 0
18.3044 0 0
18.3044 0 0
18.5483 0 0
18.5483 0 0
18.7922 0 0
18.7922 0 0
19.0361 0 0
19.0361 0 0
19.28 0 0
19.28 0 0
19.5239 0 0
19.5239 0 0
19.7678 0 0
19.7678 0 0
20.0117 0 0
20.0117 0 0
20.2556 0 0
20.2556 0 0
20.4995 0 0
20.4995 0 0
20.7434 0 0
20.7434 0 0
20.9873 0 0
20.9873 0 0
21.2312 0 0
21.2312 0 0
21.4751 0 0
21.4751 0 0
21.719 0 0
21.719 0 0
21.9629 0 0
21.9629 0 0
22.2068 0 0
22.2068 0 0
22.4507 0 0
22.4507 0 0
22.6946 0 0
22.6946 0 0
22.9385 0 0
22.9385 0 0
23.1824 0 0
23.1824 0 0
23.4263 0 0
23.4263 0 0
23.6702 0 0
23.6702 0 0
23.9141 0 0
23.9141 0 0
24.158 0 0
24.158 0 0
24.4019 0 0
24.4019 0 0
24.6458 0 0
24.6458 0 0
24.8896 0 0
24.8896 0 0
25.1335 0 0
25.1335 0 0
25.3774 0 0
25.3774 0 0
25.6213 0 0
25.6213 0 0
25.8652 0 0
25.8652 0 0
26.1091 0 0
26.1091 0 0
26.353 0 0
26.353 0 0
26.5969 0 0
26.5969 0 0
26.8408 0 0
26.8408 0 0
27.0847 0 0
27.0847 0 0
27.3286 0 0
27.3286 0 0
27.5725 0 0
27.5725 0 0
27.8164 0 0
27.8164 0 0
28.0603 0 0
28.0603 0 0
28.3042 0 0
28.3042 0 0
28.5481 0 0
28.5481 0 0
28.792 0 0
28.792 0 0
29.0359 0 0
29.0359 0 0
29.2798 0 0
29.2798 0 0
29.5237 0 0
29.5237 0 0
29.7676 0 0
29.7676 0 0
30.0115 0 0
30.0115 0 0
30.2554 0 0
30.2554 0 0
30.4993 0 0
30.4993 0 0
30.7432 0 0
30.7432 0 0
30.9871 0 0
30.9871 0 0
31.231 0 0
31.231 0 0
31.4749 0 0
31.4749 0 0
31.7188 0 0
31.7188 0 0
31.9626 0 0
31.9626 0 0
32.2065 0 0
32.2065 0 0
32.4504 0 0
32.4504 0 0
32.6943 0 0
32.6943 0 0
32.9382 0 0
32.9382 0 0
33.1821 0 0
33.1821 0 0
33.426 0 0
33.426 0 0
33.6699 0 0
33.6699 0 0
33.9138 0 0
33.9138 0 0
34.1577 0 0
34.1577 0 0
34.4016 0 0
34.4016 0 0
34.6455 0 0
34.6455 0 0
34.8894 0 0
34.8894 0 0
35.1333 0 0
35.1333 0 0
35.3772 0 0
35.3772 0 0
35.6211 0 0
35.6211 0 0
35.865 0 0
35.865 0 0
36.1089 0 0
36.1089 0 0
36.3528 0 0
36.3528 0 0
36.5967 0 0
36.5967 0 0
36.8406 0 0
36.8406 0 0
37.0845 0 0
37.0845 0 0
37.3284 0 0
37.3284 0 0
37.5723 0 0
37.5723 0 0
37.8162 0 0
37.8162 0 0
38.0601 0 0
38.0601 0 0
38.304 0 0
38.304 0 0
38.5479 0 0
38.5479 0 0
38.7917 0 0
38.7917 0 0
39.0356 0 0
39.0356 0 0
39.2795 0 0
39.2795 0 0
39.5234 0 0
39.5234 0 0
39.7673 0 0
39.7673 0 0
40.0112 0 0
40.0112 0 0
40.2551 0 0
40.2551 0 0
40.499 0 0
40.499 0 0
40.7429 0 0
40.7429 0 0
40.9868 0 0
40.9868 0 0
41.2307 0 0
41.2307 0 0
41.4746 0 0
41.4746 0 0
41.7185 0 0
41.7185 0 0
41.9624 0 0
41.9624 0 0
42.2063 0 0
42.2063 0 0
42.4502 0 0
42.4502 0 0
42.6941 0 0
42.6941 0 0
42.938 0 0
42.938 0 0
43.1819 0 0
43.1819 0 0
43.4258 0 0
43.4258 0 0
43.6697 0 0
43.6697 0 0
43.9136 0 0
43.9136 0 0
44.1575 0 0
44.1575 0 0
44.4014 0 0
44.4014 0 0
44.6453 0 0
44.6453 0 0
44.8892 0 0
44.8892 0 0
45.1331 0 0
45.1331 0 0
45.377 0 0
45.377 0 0
45.6208 0 0
45.6208 0 0
45.8647 0 0
45.8647 0 0
46.1086 0 0
46.1086 0 0
46.3525 0 0
46.3525 0 0
46.5964 0 0
46.5964 0 0
46.8403 0 0
46.8403 0 0
47.0842 0 0
47.0842 0 0
47.3281 0 0
47.3281 0 0
47.572 0 0
47.572 0 0
47.8159 0 0
47.8159 0 0
48.0598 0 0
48.0598 0 0
48.3037 0 0
48.3037 0 0
48.5476 0 0
48.5476 0 0
48.7915 0 0
48.7915 0 0
49.0354 0 0
49.0354 0 0
49.2793 0 0
49.2793 0 0
49.5232 0 0
49.5232 0 0
49.7671 0 0
49.7671 0 0
50.011 0 0
50.011 0 0
50.2549 0 0
50.2549 0 0
50.4988 0 0
50.4988 0 0
50.7427 0 0
50.7427 0 0
50.9866 0 0
50.9866 0 0
51.2305 0 0
51.2305 0 0
51.4744 0 0
51.4744 0 0
51.7183 0 0
51.7183 0 0
51.9622 0 0
51.9622 0 0
52.2061 0 0
52.2061 0 0
52.45 0 0
52.45 0 0
52.6938 0 0
52.6938 0 0
52.9377 0 0
52.9377 0 0
53.1816 0 0
53.1816 0 0
53.4255 0 0
53.4255 0 0
53.6694 0 0
53.6694 0 0
53.9133 0 0
53.9133 0 0
54.1572 0 0
54.1572 0 0
54.4011 0 0
54.4011 0 0
54.645 0 0
54.645 0 0
54.8889 0 0
54.8889 0 0
55.1328 0 0
55.1328 0 0
55.3767 0 0
55.3767 0 0
55.6206 0 0
55.6206 0 0
55.8645 0 0
55.8645 0 0
56.1084 0 0
56.1084 0 0
56.3523 0 0
56.3523 0 0
56.5962 0 0
56.5962 0 0
56.8401 0 0
56.8401 0 0
57.084 0 0
57.084 0 0
57.3279 0 0
57.3279 0 0
57.5718 0 0
57.5718 0 0
57.8157 0 0
57.8157 0 0
58.0596 0 0
58.0596 0 0
58.3035 0 0
58.3035 0 0
58.5474 0 0
58.5474 0 0
58.7913 0 0
58.7913 0 0
59.0352 0 0
59.0352 0 0
59.2791 0 0
59.2791 0 0
59.5229 0 0
59.5229 0 0
59.7668 0 0
59.7668 0 0
60.0107 0 0
60.0107 0 0
60.2546 0 0
60.2546 0 0
60.4985 0 0
60.4985 0 0
60.7424 0 0
60.7424 0 0
60.9863 0 0
60.9863 0 0
61.2302 0 0
61.2302 0 0
61.4741 0 0
61.4741 0 0
61.718 0 0
61.718 0 0
61.9619 0 0
61.9619 0 0
62.2058 0 0
62.2058 0 0
62.4497 0 0
62.4497 0 0
62.6936 0 0
62.6936 0 0
62.9375 0 0
62.9375 0 0
63.1814 0 0
63.1814 0 0
63.4253 0 0
63.4253 0 0
63.6692 0 0
63.6692 0 0
63.9131 0 0
63.9131 0 0
64.157 0 0
64.157 0 0
64.4009 0 0
64.4009 0 0
64.6448 0 0
64.6448 0 0
64.8887 0 0
64.8887 0 0
65.1326 0 0
65.1326 0 0
65.3765 0 0
65.3765 0 0
65.6204 0 0
65.6204 0 0
65.8643 0 0
65.8643 0 0
66.1082 0 0
66.1082 0 0
66.3521 0 0
66.3521 0 0
66.5959 0 0
66.5959 0 0
66.8398 0 0
66.8398 0 0
67.0837 0 0
67.0837 0 0
67.3276 0 0
67.3276 0 0
67.5715 0 0
67.5715 0 0
67.8154 0 0
67.8154 0 0
68.0593 0 0
68.0593 0 0
68.3032 0 0
68.3032 0 0
68.5471 0 0
68.5471 0 0
68.791 0 0
68.791 0 0
69.0349 0 0
69.0349 0 0
69.2788 0 0
69.2788 0 0
69.5227 0 0
69.5227 0 0
69.7666 0 0
69.7666 0 0
70.0105 0 0
70.0105 0 0
70.2544 0 0
70.2544 0 0
70.4983 0 0
70.4983 0 0
70.7422 0 0
70.7422 0 0
70.9861 0 0
70.9861 0 0
71.23 0 0
71.23 0 0
71.4739 0 0
71.4739 0 0
71.7178 0 0
71.7178 0 0
71.9617 0 0
71.9617 0 0
72.2056 0 0
72.2056 0 0
72.4495 0 0
72.4495 0 0
72.6934 0 0
72.6934 0 0
72.9373 0 0
72.9373 0 0
73.1812 0 0
73.1812 0 0
73.425 0 0
73.425 0 0
73.6689 0 0
73.6689 0 0
73.9128 0 0
73.9128 0 0
74.1567 0 0
74.1567 0 0
74.4006 0 0
74.4006 0 0
74.6445 0 0
74.6445 0 0
74.8884 0 0
74.8884 0 0
75.1323 0 0
75.1323 0 0
75.3762 0 0
75.3762 0 0
75.6201 0 0
75.6201 0 0
75.864 0 0
75.864 0 0
76.1079 0 0
76.1079 0 0
76.3518 0 0
76.3518 0 0
76.5957 0 0
76.5957 0 0
76.8396 0 0
76.8396 0 0
77.0835 0 0
77.0835 0 0
77.3274 0 0
77.3274 0 0
77.5713 0 0
77.5713 0 0
77.8152 0 0
77.8152 0 0
78.0591 0 0
78.0591 0 0
78.303 0 0
78.303 0 0
78.5469 0 0
78.5469 0 0
78.7908 0 0
78.7908 0 0
79.0347 0 0
79.0347 0 0
79.2786 0 0
79.2786 0 0
79.5225 0 0
79.5225 0 0
79.7664 0 0
79.7664 0 0
80.0103 0 0
80.0103 0 0
80.2542 0 0
80.2542 0 0
80.498 0 0
80.498 0 0
80.7419 0 0
80.7419 0 0
80.9858 0 0
80.9858 0 0
81.2297 0 0
81.2297 0 0
81.4736 0 0
81.4736 0 0
81.7175 0 0
81.7175 0 0
81.9614 0 0
81.9614 0 0
82.2053 0 0
82.2053 0 0
82.4492 0 0
82.4492 0 0
82.6931 0 0
82.6931 0 0
82.937 0 0
82.937 0 0
83.1809 0 0
83.1809 0 0
83.4248 0 0
83.4248 0 0
83.6687 0 0
83.6687 0 0
83.9126 0 0
83.9126 0 0
84.1565 0 0
84.1565 0 0
84.4004 0 0
84.4004 0 0
84.6443 0 0
84.6443 0 0
84.8882 0 0
84.8882 0 0
85.1321 0 0
85.1321 0 0
85.376 0 0
85.376 0 0
85.6199 0 0
85.6199 0 0
85.8638 0 0
85.8638 0 0
86.1077 0 0
86.1077 0 0
86.3516 0 0
86.3516 0 0
86.5955 0 0
86.5955 0 0
86.8394 0 0
86.8394 0 0
87.0833 0 0
87.0833 0 0
87.3271 0 0
87.3271 0 0
87.571 0 0
87.571 0 0
87.8149 0 0
87.8149 0 0
88.0588 0 0
88.0588 0 0
88.3027 0 0
88.3027 0 0
88.5466 0 0
88.5466 0 0
88.7905 0 0
88.7905 0 0
89.0344 0 0
89.0344 0 0
89.2783 0 0
89.2783 0 0
89.5222 0 0
89.5222 0 0
89.7661 0 0
89.7661 0 0
90.01 0 0
90.01 0 0
90.2539 0 0
90.2539 0 0
90.4978 0 0
90.4978 0 0
90.7417 0 0
90.7417 0 0
90.9856 0 0
90.9856 0 0
91.2295 0 0
91.2295 0 0
91.4734 0 0
91.4734 0 0
91.7173 0 0
91.7173 0 0
91.9612 0 0
91.9612 0 0
92.2051 0 0
92.2051 0 0
92.449 0 0
92.449 0 0
92.6929 0 0
92.6929 0 0
92.9368 0 0
92.9368 0 0
93.1807 0 0
93.1807 0 0
93.4246 0 0
93.4246 0 0
93.6685 0 0
93.6685 0 0
93.9124 0 0
93.9124 0 0
94.1562 0 0
94.1562 0 0
94.4001 0 0
94.4001 0 0
94.644 0 0
94.644 0 0
94.8879 0 0
94.8879 0 0
95.1318 0 0
95.1318 0 0
95.3757 0 0
95.3757 0 0
95.6196 0 0
95.6196 0 0
95.8635 0 0
95.8635 0 0
96.1074 0 0
96.1074 0 0
96.3513 0 0
96.3513 0 0
96.5952 0 0
96.5952 0 0
96.8391 0 0
96.8391 0 0
97.083 0 0
97.083 0 0
97.3269 0 0
97.3269 0 0
97.5708 0 0
97.5708 0 0
97.8147 0 0
97.8147 0 0
98.0586 0 0
98.0586 0 0
98.3025 0 0
98.3025 0 0
98.5464 0 0
98.5464 0 0
98.7903 0 0
98.7903 0 0
99.0342 0 0
99.0342 0 0
99.2781 0 0
99.2781 0 0
99.522 0 0
99.522 0 0
99.7659 0 0
99.7659 0 0
100.01 0 0
100.01 0 0
100.254 0 0
100.254 0 0
100.498 0 0
100.498 0 0
100.741 0 0
100.741 0 0
100.985 0 0
100.985 0 0
101.229 0 0
101.229 0 0
101.473 0 0
[...]
POINT_DATA 4096
SCALARS solution_0 double 1
LOOKUP_TABLE default
1.77931e-09 -2.02367e+06 -2.02367e+06 -797424 -797424 -520460 -520460 -384716 -384716 -301064 -301064 -243455 -243455 -201110 -201110 -168637 -168637 -142986 -142986 -122278 -122278 -105283 -105283 -91153.2 -91153.2 -79282.7 -79282.7 -69225.6 -69225.6 -60644.5 -60644.5 -53279.2 -53279.2 -46925.4 -46925.4 -41420.3 -41420.3 -36632.5 -36632.5 -32454.6 -32454.6 -28798.2 -28798.2 -25590 -25590 -22768.4 -22768.4 -20281.7 -20281.7 -18086 -18086 -16143.9 -16143.9 -14423.5 -14423.5 -12897.3 -12897.3 -11541.6 -11541.6 -10335.9 -10335.9 -9262.5 -9262.5 -8305.81 -8305.81 -7452.35 -7452.35 -6690.33 -6690.33 -6009.38 -6009.38 -5400.41 -5400.41 -4855.42 -4855.42 -4367.36 -4367.36 -3930 -3930 -3537.84 -3537.84 -3186.02 -3186.02 -2870.21 -2870.21 -2586.59 -2586.59 -2331.75 -2331.75 -2102.67 -2102.67 -1896.66 -1896.66 -1711.32 -1711.32 -1544.51 -1544.51 -1394.32 -1394.32 -1259.05 -1259.05 -1137.18 -1137.18 -1027.34 -1027.34 -928.311 -928.311 -839.008 -839.008 -758.452 -758.452 -685.766 -685.766 -620.163 -620.163 -560.94 -560.94 -507.461 -507.461 -459.16 -459.16 -415.525 -415.525 -376.097 -376.097 -340.463 -340.463 -308.251 -308.251 -279.128 -279.128 -252.791 -252.791 -228.971 -228.971 -207.423 -207.423 -187.926 -187.926 -170.284 -170.284 -154.316 -154.316 -139.862 -139.862 -126.777 -126.777 -114.929 -114.929 -104.199 -104.199 -94.4806 -94.4806 -85.6776 -85.6776 -77.7026 -77.7026 -70.4768 -70.4768 -63.929 -63.929 -57.9949 -57.9949 -52.6163 -52.6163 -47.7408 -47.7408 -43.3208 -43.3208 -39.3133 -39.3133 -35.6794 -35.6794 -32.3841 -32.3841 -29.3953 -29.3953 -26.6845 -26.6845 -24.2254 -24.2254 -21.9946 -21.9946 -19.9706 -19.9706 -18.1341 -18.1341 -16.4677 -16.4677 -14.9553 -14.9553 -13.5828 -13.5828 -12.337 -12.337 -11.2062 -11.2062 -10.1796 -10.1796 -9.24766 -9.24766 -8.40151 -8.40151 -7.63322 -7.63322 -6.93558 -6.93558 -6.30202 -6.30202 -5.72663 -5.72663 -5.20401 -5.20401 -4.72928 -4.72928 -4.29797 -4.29797 -3.90606 -3.90606 -3.54986 -3.54986 -3.22602 -3.22602 -2.93146 -2.93146 -2.66341 -2.66341 -2.41931 -2.41931 -2.19686 -2.19686 -1.99398 -1.99398 -1.80884 -1.80884 -1.63987 -1.63987 -1.48573 -1.48573 -1.3454 -1.3454 -1.21809 -1.21809 -1.10324 -1.10324 -1.00046 -1.00046 -0.909411 -0.909411 -0.829658 -0.829658 -0.76056 -0.76056 -0.701155 -0.701155 -0.65013 -0.65013 -0.605898 -0.605898 -0.566766 -0.566766 -0.531192 -0.531192 -0.498038 -0.498038 -0.466724 -0.466724 -0.437234 -0.437234 -0.409904 -0.409904 -0.385091 -0.385091 -0.362828 -0.362828 -0.342632 -0.342632 -0.323597 -0.323597 -0.304742 -0.304742 -0.285468 -0.285468 -0.265868 -0.265868 -0.246692 -0.246692 -0.228927 -0.228927 -0.213224 -0.213224 -0.199509 -0.199509 -0.187093 -0.187093 -0.175232 -0.175232 -0.163778 -0.163778 -0.153368 -0.153368 -0.144879 -0.144879 -0.138421 -0.138421 -0.132662 -0.132662 -0.125278 -0.125278 -0.114579 -0.114579 -0.101337 -0.101337 -0.0892437 -0.0892437 -0.0830389 -0.0830389 -0.0849968 -0.0849968 -0.0921617 -0.0921617 -0.0969119 -0.0969119 -0.0914792 -0.0914792 -0.0739226 -0.0739226 -0.0510853 -0.0510853 -0.0353229 -0.0353229 -0.0361042 -0.0361042 -0.0520916 -0.0520916 -0.0701858 -0.0701858 -0.0736579 -0.0736579 -0.0544464 -0.0544464 -0.0204172 -0.0204172 0.00896777 0.00896777 0.016602 0.016602 0.00124066 0.00124066 -0.0202571 -0.0202571 -0.0246422 -0.0246422 0.000464333 0.000464333 0.0471945 0.0471945 0.0936648 0.0936648 0.121299 0.121299 0.129871 0.129871 0.13877 0.13877 0.174026 0.174026 0.251605 0.251605 0.369622 0.369622 0.514324 0.514324 0.673986 0.673986 0.849756 0.849756 1.05597 1.05597 1.31053 1.31053 1.62227 1.62227 1.98293 1.98293 2.36792 2.36792 2.74485 2.74485 3.08471 3.08471 3.36926 3.36926 3.59055 3.59055 3.7431 3.7431 3.81509 3.81509 3.7858 3.7858 3.63293 3.63293 3.34584 3.34584 2.93624 2.93624 2.43927 2.43927 1.90446 1.90446 1.38179 1.38179 0.910503 0.910503 0.514729 0.514729 0.205612 0.205612 -0.0139844 -0.0139844 -0.146286 -0.146286 -0.198768 -0.198768 -0.186265 -0.186265 -0.131625 -0.131625 -0.0622125 -0.0622125 -0.00272157 -0.00272157 0.0320789 0.0320789 0.0404207 0.0404207 0.030735 0.030735 0.0149891 0.0149891 0.00225851 0.00225851 -0.00419263 -0.00419263 -0.00576997 -0.00576997 -0.00530689 -0.00530689 -0.00443101 -0.00443101 -0.00309144 -0.00309144 -0.000832746 -0.000832746 0.00186606 0.00186606 0.00356886 0.00356886 0.00311108 0.00311108 0.000786953 0.000786953 -0.00171693 -0.00171693 -0.00263537 -0.00263537 -0.00152176 -0.00152176 0.000483964 0.000483964 0.00170203 0.00170203 0.0013207 0.0013207 -4.779e-05 -4.779e-05 -0.00107181 -0.00107181 -0.00094375 -0.00094375 -7.67471e-06 -7.67471e-06 0.000731752 0.000731752 0.000634986 0.000634986 -4.16127e-05 -4.16127e-05 -0.000543152 -0.000543152 -0.000421081 -0.000421081 9.19882e-05 9.19882e-05 0.000425032 0.000425032 0.000278357 0.000278357 -0.000127542 -0.000127542 -0.000345044 -0.000345044 -0.000175552 -0.000175552 0.000157462 0.000157462 0.000282195 0.000282195 8.62048e-05 8.62048e-05 -0.000181743 -0.000181743 -0.000215338 -0.000215338 -2.19303e-06 -2.19303e-06 0.000185898 0.000185898 0.000135422 0.000135422 -6.35832e-05 -6.35832e-05 -0.000158545 -0.000158545 -5.4763e-05 -5.4763e-05 9.45061e-05 9.45061e-05 0.000108052 0.000108052 -5.12929e-06 -5.12929e-06 -9.09856e-05 -9.09856e-05 -5.66788e-05 -5.66788e-05 3.55935e-05 3.55935e-05 7.05735e-05 7.05735e-05 1.91299e-05 1.91299e-05 -4.61549e-05 -4.61549e-05 -4.85476e-05 -4.85476e-05 6.88275e-06 6.88275e-06 4.80621e-05 4.80621e-05 2.57747e-05 2.57747e-05 -2.73447e-05 -2.73447e-05 -4.0726e-05 -4.0726e-05 7.69581e-07 7.69581e-07 3.77537e-05 3.77537e-05 2.01295e-05 2.01295e-05 -2.33894e-05 -2.33894e-05 -2.99405e-05 -2.99405e-05 5.88078e-06 5.88078e-06 2.89648e-05 2.89648e-05 8.38913e-06 8.38913e-06 -2.09003e-05 -2.09003e-05 -1.63298e-05 -1.63298e-05 1.03065e-05 1.03065e-05 1.78559e-05 1.78559e-05 -8.38018e-07 -8.38018e-07 -1.47399e-05 -1.47399e-05 -5.49577e-06 -5.49577e-06 9.36416e-06 9.36416e-06 8.25775e-06 8.25775e-06 -3.81302e-06 -3.81302e-06 -8.08026e-06 -8.08026e-06 -5.66905e-07 -5.66905e-07 6.07313e-06 6.07313e-06 3.21809e-06 3.21809e-06 -3.35321e-06 -3.35321e-06 -4.19266e-06 -4.19266e-06 7.71524e-07 7.71524e-07 3.89411e-06 3.89411e-06 1.17707e-06 1.17707e-06 -2.84306e-06 -2.84306e-06 -2.32019e-06 -2.32019e-06 1.51547e-06 1.51547e-06 2.71411e-06 2.71411e-06 -2.60225e-07 -2.60225e-07 -2.53917e-06 -2.53917e-06 -7.20163e-07 -7.20163e-07 2.01349e-06 2.01349e-06 1.34977e-06 1.34977e-06 -1.33584e-06 -1.33584e-06 -1.64223e-06 -1.64223e-06 6.56923e-07 6.56923e-07 1.66211e-06 1.66211e-06 -7.21724e-08 -7.21724e-08 -1.49319e-06 -1.49319e-06 -3.72136e-07 -3.72136e-07 1.21682e-06 1.21682e-06 6.66674e-07 6.66674e-07 -8.99976e-07 -8.99976e-07 -8.25739e-07 -8.25739e-07 5.90785e-07 5.90785e-07 8.75747e-07 8.75747e-07 -3.18976e-07 -3.18976e-07 -8.46712e-07 -8.46712e-07 9.90322e-08 9.90322e-08 7.6681e-07 7.6681e-07 6.5726e-08 6.5726e-08 -6.59524e-07 -6.59524e-07 -1.79169e-07 -1.79169e-07 5.42657e-07 5.42657e-07 2.49049e-07 2.49049e-07 -4.28517e-07 -4.28517e-07 -2.8456e-07 -2.8456e-07 3.24735e-07 3.24735e-07 2.94726e-07 2.94726e-07 -2.35292e-07 -2.35292e-07 -2.87479e-07 -2.87479e-07 1.61544e-07 1.61544e-07 2.69261e-07 2.69261e-07 -1.03101e-07 -1.03101e-07 -2.44968e-07 -2.44968e-07 5.8522e-08 5.8522e-08 2.18097e-07 2.18097e-07 -2.583e-08 -2.583e-08 -1.91e-07 -1.91e-07 2.87437e-09 2.87437e-09 1.65152e-07 1.65152e-07 1.243e-08 1.243e-08 -1.41406e-07 -1.41406e-07 -2.19544e-08 -2.19544e-08 1.20188e-07 1.20188e-07 2.72766e-08 2.72766e-08 -1.01653e-07 -1.01653e-07 -2.96533e-08 -2.96533e-08 8.57724e-08 8.57724e-08 3.00304e-08 3.00304e-08 -7.24028e-08 -7.24028e-08 -2.90825e-08 -2.90825e-08 6.13154e-08 6.13154e-08 2.72691e-08 2.72691e-08 -5.22238e-08 -5.22238e-08 -2.48977e-08 -2.48977e-08 4.48069e-08 4.48069e-08 2.21819e-08 2.21819e-08 -3.87369e-08 -3.87369e-08 -1.92864e-08 -1.92864e-08 3.3708e-08 3.3708e-08 1.63541e-08 1.63541e-08 -2.94617e-08 -2.94617e-08 -1.35141e-08 -1.35141e-08 2.58043e-08 2.58043e-08 1.08751e-08 1.08751e-08 -2.26095e-08 -2.26095e-08 -8.5131e-09 -8.5131e-09 1.98076e-08 1.98076e-08 6.46097e-09 6.46097e-09 -1.73634e-08 -1.73634e-08 -4.70688e-09 -4.70688e-09 1.52518e-08 1.52518e-08 3.20442e-09 3.20442e-09 -1.34362e-08 -1.34362e-08 -1.89221e-09 -1.89221e-09 1.18591e-08 1.18591e-08 7.1675e-10 7.1675e-10 -1.04458e-08 -1.04458e-08 3.49033e-10 3.49033e-10 9.11894e-09 9.11894e-09 -1.29808e-09 -1.29808e-09 -7.81881e-09 -7.81881e-09 2.095e-09 2.095e-09 6.51934e-09 6.51934e-09 -2.69312e-09 -2.69312e-09 -5.23464e-09 -5.23464e-09 3.05646e-09 3.05646e-09 4.01202e-09 4.01202e-09 -3.1784e-09 -3.1784e-09 -2.91386e-09 -2.91386e-09 3.08995e-09 3.08995e-09 1.99444e-09 1.99444e-09 -2.85442e-09 -2.85442e-09 -1.28e-09 -1.28e-09 2.55039e-09 2.55039e-09 7.5923e-10 7.5923e-10 -2.24918e-09 -2.24918e-09 -3.87375e-10 -3.87375e-10 1.99503e-09 1.99503e-09 1.02329e-10 1.02329e-10 -1.79543e-09 -1.79543e-09 1.53537e-10 1.53537e-10 1.62465e-09 1.62465e-09 -4.13973e-10 -4.13973e-10 -1.43916e-09 -1.43916e-09 6.79051e-10 6.79051e-10 1.19879e-09 1.19879e-09 -9.18355e-10 -9.18355e-10 -8.85589e-10 -8.85589e-10 1.08564e-09 1.08564e-09 5.13521e-10 5.13521e-10 -1.13919e-09 -1.13919e-09 -1.25571e-10 -1.25571e-10 1.06004e-09 1.06004e-09 -2.20236e-10 -2.20236e-10 -8.61518e-10 -8.61518e-10 4.70373e-10 4.70373e-10 5.86711e-10 5.86711e-10 -5.93501e-10 -5.93501e-10 -2.95354e-10 -2.95354e-10 5.89928e-10 5.89928e-10 4.53733e-11 4.53733e-11 -4.89833e-10 -4.89833e-10 1.23981e-10 1.23981e-10 3.41558e-10 3.41558e-10 -2.01463e-10 -2.01463e-10 -1.94897e-10 -1.94897e-10 2.02879e-10 2.02879e-10 8.57703e-11 8.57703e-11 -1.61173e-10 -1.61173e-10 -2.76745e-11 -2.76745e-11 1.12064e-10 1.12064e-10 1.22223e-11 1.22223e-11 -8.10305e-11 -8.10305e-11 -1.74492e-11 -1.74492e-11 7.63129e-11 7.63129e-11 1.97033e-11 1.97033e-11 -8.97424e-11 -8.97424e-11 -4.03832e-12 -4.03832e-12 1.03947e-10 1.03947e-10 -3.07612e-11 -3.07612e-11 -1.02115e-10 -1.02115e-10 7.37489e-11 7.37489e-11 7.59753e-11 7.59753e-11 -1.08363e-10 -1.08363e-10 -2.89492e-11 -2.89492e-11 1.20506e-10 1.20506e-10 -2.61249e-11 -2.61249e-11 -1.04576e-10 -1.04576e-10 7.29796e-11 7.29796e-11 6.52204e-11 6.52204e-11 -9.85905e-11 -9.85905e-11 -1.4746e-11 -1.4746e-11 9.77091e-11 9.77091e-11 -3.21072e-11 -3.21072e-11 -7.37886e-11 -7.37886e-11 6.35043e-11 6.35043e-11 3.65815e-11 3.65815e-11 -7.38953e-11 -7.38953e-11 2.02858e-12 2.02858e-12 6.45796e-11 6.45796e-11 -3.20429e-11 -3.20429e-11 -4.19016e-11 -4.19016e-11 4.78287e-11 4.78287e-11 1.43146e-11 1.43146e-11 -4.86443e-11 -4.86443e-11 1.03966e-11 1.03966e-11 3.76294e-11 3.76294e-11 -2.69265e-11 -2.69265e-11 -2.0064e-11 -2.0064e-11 3.31127e-11 3.31127e-11 1.61599e-12 1.61599e-12 -2.96983e-11 -2.96983e-11 1.30223e-11 1.30223e-11 1.95548e-11 1.95548e-11 -2.09898e-11 -2.09898e-11 -6.64759e-12 -6.64759e-12 2.16053e-11 2.16053e-11 -5.06971e-12 -5.06971e-12 -1.62152e-11 -1.62152e-11 1.26531e-11 1.26531e-11 7.56772e-12 7.56772e-12 -1.48363e-11 -1.48363e-11 1.15214e-12 1.15214e-12 1.21682e-11 1.21682e-11 -7.34466e-12 -7.34466e-12 -6.56666e-12 -6.56666e-12 9.72406e-12 9.72406e-12 4.63591e-13 4.63591e-13 -8.5013e-12 -8.5013e-12 4.10633e-12 4.10633e-12 5.00451e-12 5.00451e-12 -6.11238e-12 -6.11238e-12 -9.65866e-13 -9.65866e-13 5.63958e-12 5.63958e-12 -2.1797e-12 -2.1797e-12 -3.56173e-12 -3.56173e-12 3.70603e-12 3.70603e-12 1.01349e-12 1.01349e-12 -3.62953e-12 -3.62953e-12 1.07228e-12 1.07228e-12 2.46608e-12 2.46608e-12 -2.20215e-12 -2.20215e-12 -8.9937e-13 -8.9937e-13 2.32666e-12 2.32666e-12 -4.83194e-13 -4.83194e-13 -1.70368e-12 -1.70368e-12 1.32457e-12 1.32457e-12 7.2733e-13 7.2733e-13 -1.52069e-12 -1.52069e-12 2.1452e-13 2.1452e-13 1.17754e-12 1.17754e-12 -8.38013e-13 -8.38013e-13 -5.3586e-13 -5.3586e-13 1.01839e-12 1.01839e-12 -1.21517e-13 -1.21517e-13 -7.99695e-13 -7.99695e-13 5.64431e-13 5.64431e-13 3.5387e-13 3.5387e-13 -6.85979e-13 -6.85979e-13 1.01159e-13 1.01159e-13 5.21346e-13 5.21346e-13 -3.92639e-13 -3.92639e-13 -2.0738e-13 -2.0738e-13 4.52785e-13 4.52785e-13 -9.43721e-14 -9.43721e-14 -3.22916e-13 -3.22916e-13 2.70327e-13 2.70327e-13 1.08862e-13 1.08862e-13 -2.89524e-13 -2.89524e-13 8.09865e-14 8.09865e-14 1.92613e-13 1.92613e-13 -1.81197e-13 -1.81197e-13 -5.29263e-14 -5.29263e-14 1.81962e-13 1.81962e-13 -6.3513e-14 -6.3513e-14 -1.14197e-13 -1.14197e-13 1.20787e-13 1.20787e-13 2.39332e-14 2.39332e-14 -1.15782e-13 -1.15782e-13 4.91466e-14 4.91466e-14 6.82997e-14 6.82997e-14 -8.29902e-14 -8.29902e-14 -7.50621e-15 -7.50621e-15 7.52865e-14 7.52865e-14 -4.00718e-14 -4.00718e-14 -3.94174e-14 -3.94174e-14 5.89486e-14 5.89486e-14 -3.4292e-15 -3.4292e-15 -4.82605e-14 -4.82605e-14 3.37315e-14 3.37315e-14 1.95917e-14 1.95917e-14 -4.14232e-14 -4.14232e-14 1.01346e-14 1.01346e-14 2.86535e-14 2.86535e-14 -2.72994e-14 -2.72994e-14 -6.43031e-15 -6.43031e-15 2.7312e-14 2.7312e-14 -1.25096e-14 -1.25096e-14 -1.47928e-14 -1.47928e-14 2.02676e-14 2.02676e-14 -9.28319e-16 -9.28319e-16 -1.6395e-14 -1.6395e-14 1.1596e-14 1.1596e-14 6.07729e-15 6.07729e-15 -1.37217e-14 -1.37217e-14 3.98175e-15 3.98175e-15 8.85187e-15 8.85187e-15 -9.19384e-15 -9.19384e-15 -1.32146e-15 -1.32146e-15 8.58458e-15 8.58458e-15 -4.60002e-15 -4.60002e-15 -4.1446e-15 -4.1446e-15 6.63592e-15 6.63592e-15 -9.55684e-16 -9.55684e-16 -4.9491e-15 -4.9491e-15 4.13918e-15 4.13918e-15 1.38148e-15 1.38148e-15 -4.43276e-15 -4.43276e-15 1.8445e-15 1.8445e-15 2.49276e-15 2.49276e-15 -3.26513e-15 -3.26513e-15 1.26607e-16 1.26607e-16 2.68008e-15 2.68008e-15 -1.95385e-15 -1.95385e-15 -9.24964e-16 -9.24964e-16 2.30021e-15 2.30021e-15 -8.10488e-16 -8.10488e-16 -1.39425e-15 -1.39425e-15 1.66483e-15 1.66483e-15 2.44508e-17 2.44508e-17 -1.44202e-15 -1.44202e-15 9.97418e-16 9.97418e-16 5.31657e-16 5.31657e-16 -1.23819e-15 -1.23819e-15 4.28985e-16 4.28985e-16 7.61305e-16 7.61305e-16 -9.24222e-16 -9.24222e-16 1.48787e-17 1.48787e-17 7.91555e-16 7.91555e-16 -5.99041e-16 -5.99041e-16 -2.41166e-16 -2.41166e-16 7.01066e-16 7.01066e-16 -3.19961e-16 -3.19961e-16 -3.64194e-16 -3.64194e-16 5.54374e-16 5.54374e-16 -1.11251e-16 -1.11251e-16 -3.90447e-16 -3.90447e-16 3.96854e-16 3.96854e-16 2.51142e-17 2.51142e-17 -3.55965e-16 -3.55965e-16 2.55613e-16 2.55613e-16 9.96478e-17 9.96478e-17 -2.90582e-16 -2.90582e-16 1.43257e-16 1.43257e-16 1.27915e-16 1.27915e-16 -2.15836e-16 -2.15836e-16 6.24578e-17 6.24578e-17 1.25696e-16 1.25696e-16 -1.45295e-16 -1.45295e-16 1.00673e-17 1.00673e-17 1.06374e-16 1.06374e-16 -8.60566e-17 -8.60566e-17 -1.97188e-17 -1.97188e-17 7.99437e-17 7.99437e-17 -4.06128e-17 -4.06128e-17 -3.32547e-17 -3.32547e-17 5.30322e-17 5.30322e-17 -8.56652e-18 -8.56652e-18 -3.62421e-17 -3.62421e-17 2.94392e-17 2.94392e-17 1.20056e-17 1.20056e-17 -3.31983e-17 -3.31983e-17 1.08626e-17 1.08626e-17 2.35997e-17 2.35997e-17 -2.73573e-17 -2.73573e-17 -2.3978e-18 -2.3978e-18 2.86941e-17 2.86941e-17 -2.08125e-17 -2.08125e-17 -1.08566e-17 -1.08566e-17 2.94377e-17 2.94377e-17 -1.47602e-17 -1.47602e-17 -1.54129e-17 -1.54129e-17 2.75313e-17 2.75313e-17 -9.7585e-18 -9.7585e-18 -1.70636e-17 -1.70636e-17 2.42242e-17 2.42242e-17 -5.95535e-18 -5.95535e-18 -1.67347e-17 -1.67347e-17 2.03727e-17 2.03727e-17 -3.26495e-18 -3.26495e-18 -1.51983e-17 -1.51983e-17 1.65207e-17 1.65207e-17 -1.49291e-18 -1.49291e-18 -1.30465e-17 -1.30465e-17 1.29809e-17 1.29809e-17 -4.16059e-19 -4.16059e-19 -1.06998e-17 -1.06998e-17 9.90594e-18 9.90594e-18 1.7251e-19 1.7251e-19 -8.43191e-18 -8.43191e-18 7.34434e-18 7.34434e-18 4.42668e-19 4.42668e-19 -6.40154e-18 -6.40154e-18 5.28173e-18 5.28173e-18 5.21921e-19 5.21921e-19 -4.68294e-18 -4.68294e-18 3.66969e-18 3.66969e-18 4.9874e-19 4.9874e-19 -3.29295e-18 -3.29295e-18 2.44464e-18 2.44464e-18 4.29818e-19 4.29818e-19 -2.21271e-18 -2.21271e-18 1.53961e-18 1.53961e-18 3.48277e-19 3.48277e-19 -1.40391e-18 -1.40391e-18 8.9091e-19 8.9091e-19 2.71173e-19 2.71173e-19 -8.2032e-19 -8.2032e-19 4.4171e-19 4.4171e-19 2.05539e-19 2.05539e-19 -4.15294e-19 -4.15294e-19 1.4344e-19 1.4344e-19 1.52806e-19 1.52806e-19 -1.46235e-19 -1.46235e-19 -4.3976e-20 -4.3976e-20 1.11746e-19 1.11746e-19 2.31802e-20 2.31802e-20 -1.52599e-19 -1.52599e-19 8.02464e-20 8.02464e-20 1.22298e-19 1.22298e-19 -2.07324e-19 -2.07324e-19 5.623e-20 5.623e-20 1.73753e-19 1.73753e-19 -2.26887e-19 -2.26887e-19 3.80277e-20 3.80277e-20 1.9427e-19 1.9427e-19 -2.24913e-19 -2.24913e-19 2.44326e-20 2.44326e-20 1.95703e-19 1.95703e-19 -2.10924e-19 -2.10924e-19 1.46054e-20 1.46054e-20 1.86101e-19 1.86101e-19 -1.91258e-19 -1.91258e-19 7.93716e-21 7.93716e-21 1.70696e-19 1.70696e-19 -1.69872e-19 -1.69872e-19 3.92815e-21 3.92815e-21 1.52726e-19 1.52726e-19 -1.49025e-19 -1.49025e-19 2.10711e-21 2.10711e-21 1.34103e-19 1.34103e-19 -1.29823e-19 -1.29823e-19 1.99405e-21 1.99405e-21 1.15891e-19 1.15891e-19 -1.12646e-19 -1.12646e-19 3.09821e-21 3.09821e-21 9.86619e-20 9.86619e-20 -9.74646e-20 -9.74646e-20 4.93858e-21 4.93858e-21 8.27097e-20 8.27097e-20 -8.40598e-20 -8.40598e-20 7.0742e-21 7.0742e-21 6.81911e-20 6.81911e-20 -7.21616e-20 -7.21616e-20 9.13397e-21 9.13397e-21 5.51934e-20 5.51934e-20 -6.15311e-20 -6.15311e-20 1.08389e-20 1.08389e-20 4.37645e-20 4.37645e-20 -5.19939e-20 -5.19939e-20 1.20127e-20 1.20127e-20 3.39185e-20 3.39185e-20 -4.34448e-20 -4.34448e-20 1.25804e-20 1.25804e-20 2.56324e-20 2.56324e-20 -3.58328e-20 -3.58328e-20 1.25558e-20 1.25558e-20 1.88402e-20 1.88402e-20 -2.91391e-20 -2.91391e-20 1.20205e-20 1.20205e-20 1.34326e-20 1.34326e-20 -2.33533e-20 -2.33533e-20 1.10988e-20 1.10988e-20 9.26108e-21 9.26108e-21 -1.8455e-20 -1.8455e-20 9.93257e-21 9.93257e-21 6.14874e-21 6.14874e-21 -1.44014e-20 -1.44014e-20 8.65869e-21 8.65869e-21 3.90461e-21 3.90461e-21 -1.11241e-20 -1.11241e-20 7.39232e-21 7.39232e-21 2.339e-21 2.339e-21 -8.53208e-21 -8.53208e-21 6.21711e-21 6.21711e-21 1.27755e-21 1.27755e-21 -6.51922e-21 -6.51922e-21 5.18241e-21 5.18241e-21 5.71719e-22 5.71719e-22 -4.97498e-21 -4.97498e-21 4.30628e-21 4.30628e-21 1.04512e-22 1.04512e-22 -3.79429e-21 -3.79429e-21 3.58257e-21 3.58257e-21 -2.08592e-22 -2.08592e-22 -2.88556e-21 -2.88556e-21 2.98991e-21 2.98991e-21 -4.22893e-22 -4.22893e-22 -2.17546e-21 -2.17546e-21 2.50051e-21 2.50051e-21 -5.70502e-22 -5.70502e-22 -1.6101e-21 -1.6101e-21 2.08739e-21 2.08739e-21 -6.67577e-22 -6.67577e-22 -1.15335e-21 -1.15335e-21 1.72903e-21 1.72903e-21 -7.21291e-22 -7.21291e-22 -7.83039e-22 -7.83039e-22 1.41132e-21 1.41132e-21 -7.35437e-22 -7.35437e-22 -4.86376e-22 -4.86376e-22 1.12725e-21 1.12725e-21 -7.14098e-22 -7.14098e-22 -2.55508e-22 -2.55508e-22 8.75141e-22 8.75141e-22 -6.6333e-22 -6.6333e-22 -8.41139e-23 -8.41139e-23 6.56118e-22 6.56118e-22 -5.91224e-22 -5.91224e-22 3.46972e-23 3.46972e-23 4.71814e-22 4.71814e-22 -5.06929e-22 -5.06929e-22 1.09153e-22 1.09153e-22 3.22672e-22 3.22672e-22 -4.19282e-22 -4.19282e-22 1.48556e-22 1.48556e-22 2.07119e-22 2.07119e-22 -3.35574e-22 -3.35574e-22 1.62433e-22 1.62433e-22 1.21582e-22 1.21582e-22 -2.60788e-22 -2.60788e-22 1.5954e-22 1.5954e-22 6.10739e-23 6.10739e-23 -1.97431e-22 -1.97431e-22 1.4706e-22 1.4706e-22 2.00619e-23 2.00619e-23 -1.45866e-22 -1.45866e-22 1.30203e-22 1.30203e-22 -6.69733e-24 -6.69733e-24 -1.04976e-22 -1.04976e-22 1.12221e-22 1.12221e-22 -2.35555e-23 -2.35555e-23 -7.29136e-23 -7.29136e-23 9.47642e-23 9.47642e-23 -3.37015e-23 -3.37015e-23 -4.77509e-23 -4.77509e-23 7.84047e-23 7.84047e-23 -3.92018e-23 -3.92018e-23 -2.79037e-23 -2.79037e-23 6.3175e-23 6.3175e-23 -4.12567e-23 -4.12567e-23 -1.2301e-23 -1.2301e-23 4.89883e-23 4.89883e-23 -4.05469e-23 -4.05469e-23 -3.39402e-25 -3.39402e-25 3.58796e-23 3.58796e-23 -3.75535e-23 -3.75535e-23 8.2905e-24 8.2905e-24 2.40673e-23 2.40673e-23 -3.27752e-23 -3.27752e-23 1.38102e-23 1.38102e-23 1.38859e-23 1.38859e-23 -2.68151e-23 -2.68151e-23 1.65156e-23 1.65156e-23 5.65684e-24 5.65684e-24 -2.03563e-23 -2.03563e-23 1.68552e-23 1.68552e-23 -4.33025e-25 -4.33025e-25 -1.40706e-23 -1.40706e-23 1.54199e-23 1.54199e-23 -4.403e-24 -4.403e-24 -8.51365e-24 -8.51365e-24 1.28704e-23 1.28704e-23 -6.4829e-24 -6.4829e-24 -4.048e-24 -4.048e-24 9.83954e-24 9.83954e-24 -7.06057e-24 -7.06057e-24 -8.15451e-25 -8.15451e-25 6.84596e-24 6.84596e-24 -6.59801e-2