# vtk DataFile Version 3.0
#This file was generated by the deal.II library on 2020/8/11 at 19:54:11
ASCII
DATASET UNSTRUCTURED_GRID

POINTS 4096 double
0.5 0 0
0.743896 0 0
0.743896 0 0
0.987793 0 0
0.987793 0 0
1.23169 0 0
1.23169 0 0
1.47559 0 0
1.47559 0 0
1.71948 0 0
1.71948 0 0
1.96338 0 0
1.96338 0 0
2.20728 0 0
2.20728 0 0
2.45117 0 0
2.45117 0 0
2.69507 0 0
2.69507 0 0
2.93896 0 0
2.93896 0 0
3.18286 0 0
3.18286 0 0
3.42676 0 0
3.42676 0 0
3.67065 0 0
3.67065 0 0
3.91455 0 0
3.91455 0 0
4.15845 0 0
4.15845 0 0
4.40234 0 0
4.40234 0 0
4.64624 0 0
4.64624 0 0
4.89014 0 0
4.89014 0 0
5.13403 0 0
5.13403 0 0
5.37793 0 0
5.37793 0 0
5.62183 0 0
5.62183 0 0
5.86572 0 0
5.86572 0 0
6.10962 0 0
6.10962 0 0
6.35352 0 0
6.35352 0 0
6.59741 0 0
6.59741 0 0
6.84131 0 0
6.84131 0 0
7.08521 0 0
7.08521 0 0
7.3291 0 0
7.3291 0 0
7.573 0 0
7.573 0 0
7.81689 0 0
7.81689 0 0
8.06079 0 0
8.06079 0 0
8.30469 0 0
8.30469 0 0
8.54858 0 0
8.54858 0 0
8.79248 0 0
8.79248 0 0
9.03638 0 0
9.03638 0 0
9.28027 0 0
9.28027 0 0
9.52417 0 0
9.52417 0 0
9.76807 0 0
9.76807 0 0
10.012 0 0
10.012 0 0
10.2559 0 0
10.2559 0 0
10.4998 0 0
10.4998 0 0
10.7437 0 0
10.7437 0 0
10.9875 0 0
10.9875 0 0
11.2314 0 0
11.2314 0 0
11.4753 0 0
11.4753 0 0
11.7192 0 0
11.7192 0 0
11.9631 0 0
11.9631 0 0
12.207 0 0
12.207 0 0
12.4509 0 0
12.4509 0 0
12.6948 0 0
12.6948 0 0
12.9387 0 0
12.9387 0 0
13.1826 0 0
13.1826 0 0
13.4265 0 0
13.4265 0 0
13.6704 0 0
13.6704 0 0
13.9143 0 0
13.9143 0 0
14.1582 0 0
14.1582 0 0
14.4021 0 0
14.4021 0 0
14.646 0 0
14.646 0 0
14.8899 0 0
14.8899 0 0
15.1338 0 0
15.1338 0 0
15.3777 0 0
15.3777 0 0
15.6216 0 0
15.6216 0 0
15.8655 0 0
15.8655 0 0
16.1094 0 0
16.1094 0 0
16.3533 0 0
16.3533 0 0
16.5972 0 0
16.5972 0 0
16.8411 0 0
16.8411 0 0
17.085 0 0
17.085 0 0
17.3289 0 0
17.3289 0 0
17.5728 0 0
17.5728 0 0
17.8167 0 0
17.8167 0 0
18.0605 0 0
18.0605 0 0
18.3044 0 0
18.3044 0 0
18.5483 0 0
18.5483 0 0
18.7922 0 0
18.7922 0 0
19.0361 0 0
19.0361 0 0
19.28 0 0
19.28 0 0
19.5239 0 0
19.5239 0 0
19.7678 0 0
19.7678 0 0
20.0117 0 0
20.0117 0 0
20.2556 0 0
20.2556 0 0
20.4995 0 0
20.4995 0 0
20.7434 0 0
20.7434 0 0
20.9873 0 0
20.9873 0 0
21.2312 0 0
21.2312 0 0
21.4751 0 0
21.4751 0 0
21.719 0 0
21.719 0 0
21.9629 0 0
21.9629 0 0
22.2068 0 0
22.2068 0 0
22.4507 0 0
22.4507 0 0
22.6946 0 0
22.6946 0 0
22.9385 0 0
22.9385 0 0
23.1824 0 0
23.1824 0 0
23.4263 0 0
23.4263 0 0
23.6702 0 0
23.6702 0 0
23.9141 0 0
23.9141 0 0
24.158 0 0
24.158 0 0
24.4019 0 0
24.4019 0 0
24.6458 0 0
24.6458 0 0
24.8896 0 0
24.8896 0 0
25.1335 0 0
25.1335 0 0
25.3774 0 0
25.3774 0 0
25.6213 0 0
25.6213 0 0
25.8652 0 0
25.8652 0 0
26.1091 0 0
26.1091 0 0
26.353 0 0
26.353 0 0
26.5969 0 0
26.5969 0 0
26.8408 0 0
26.8408 0 0
27.0847 0 0
27.0847 0 0
27.3286 0 0
27.3286 0 0
27.5725 0 0
27.5725 0 0
27.8164 0 0
27.8164 0 0
28.0603 0 0
28.0603 0 0
28.3042 0 0
28.3042 0 0
28.5481 0 0
28.5481 0 0
28.792 0 0
28.792 0 0
29.0359 0 0
29.0359 0 0
29.2798 0 0
29.2798 0 0
29.5237 0 0
29.5237 0 0
29.7676 0 0
29.7676 0 0
30.0115 0 0
30.0115 0 0
30.2554 0 0
30.2554 0 0
30.4993 0 0
30.4993 0 0
30.7432 0 0
30.7432 0 0
30.9871 0 0
30.9871 0 0
31.231 0 0
31.231 0 0
31.4749 0 0
31.4749 0 0
31.7188 0 0
31.7188 0 0
31.9626 0 0
31.9626 0 0
32.2065 0 0
32.2065 0 0
32.4504 0 0
32.4504 0 0
32.6943 0 0
32.6943 0 0
32.9382 0 0
32.9382 0 0
33.1821 0 0
33.1821 0 0
33.426 0 0
33.426 0 0
33.6699 0 0
33.6699 0 0
33.9138 0 0
33.9138 0 0
34.1577 0 0
34.1577 0 0
34.4016 0 0
34.4016 0 0
34.6455 0 0
34.6455 0 0
34.8894 0 0
34.8894 0 0
35.1333 0 0
35.1333 0 0
35.3772 0 0
35.3772 0 0
35.6211 0 0
35.6211 0 0
35.865 0 0
35.865 0 0
36.1089 0 0
36.1089 0 0
36.3528 0 0
36.3528 0 0
36.5967 0 0
36.5967 0 0
36.8406 0 0
36.8406 0 0
37.0845 0 0
37.0845 0 0
37.3284 0 0
37.3284 0 0
37.5723 0 0
37.5723 0 0
37.8162 0 0
37.8162 0 0
38.0601 0 0
38.0601 0 0
38.304 0 0
38.304 0 0
38.5479 0 0
38.5479 0 0
38.7917 0 0
38.7917 0 0
39.0356 0 0
39.0356 0 0
39.2795 0 0
39.2795 0 0
39.5234 0 0
39.5234 0 0
39.7673 0 0
39.7673 0 0
40.0112 0 0
40.0112 0 0
40.2551 0 0
40.2551 0 0
40.499 0 0
40.499 0 0
40.7429 0 0
40.7429 0 0
40.9868 0 0
40.9868 0 0
41.2307 0 0
41.2307 0 0
41.4746 0 0
41.4746 0 0
41.7185 0 0
41.7185 0 0
41.9624 0 0
41.9624 0 0
42.2063 0 0
42.2063 0 0
42.4502 0 0
42.4502 0 0
42.6941 0 0
42.6941 0 0
42.938 0 0
42.938 0 0
43.1819 0 0
43.1819 0 0
43.4258 0 0
43.4258 0 0
43.6697 0 0
43.6697 0 0
43.9136 0 0
43.9136 0 0
44.1575 0 0
44.1575 0 0
44.4014 0 0
44.4014 0 0
44.6453 0 0
44.6453 0 0
44.8892 0 0
44.8892 0 0
45.1331 0 0
45.1331 0 0
45.377 0 0
45.377 0 0
45.6208 0 0
45.6208 0 0
45.8647 0 0
45.8647 0 0
46.1086 0 0
46.1086 0 0
46.3525 0 0
46.3525 0 0
46.5964 0 0
46.5964 0 0
46.8403 0 0
46.8403 0 0
47.0842 0 0
47.0842 0 0
47.3281 0 0
47.3281 0 0
47.572 0 0
47.572 0 0
47.8159 0 0
47.8159 0 0
48.0598 0 0
48.0598 0 0
48.3037 0 0
48.3037 0 0
48.5476 0 0
48.5476 0 0
48.7915 0 0
48.7915 0 0
49.0354 0 0
49.0354 0 0
49.2793 0 0
49.2793 0 0
49.5232 0 0
49.5232 0 0
49.7671 0 0
49.7671 0 0
50.011 0 0
50.011 0 0
50.2549 0 0
50.2549 0 0
50.4988 0 0
50.4988 0 0
50.7427 0 0
50.7427 0 0
50.9866 0 0
50.9866 0 0
51.2305 0 0
51.2305 0 0
51.4744 0 0
51.4744 0 0
51.7183 0 0
51.7183 0 0
51.9622 0 0
51.9622 0 0
52.2061 0 0
52.2061 0 0
52.45 0 0
52.45 0 0
52.6938 0 0
52.6938 0 0
52.9377 0 0
52.9377 0 0
53.1816 0 0
53.1816 0 0
53.4255 0 0
53.4255 0 0
53.6694 0 0
53.6694 0 0
53.9133 0 0
53.9133 0 0
54.1572 0 0
54.1572 0 0
54.4011 0 0
54.4011 0 0
54.645 0 0
54.645 0 0
54.8889 0 0
54.8889 0 0
55.1328 0 0
55.1328 0 0
55.3767 0 0
55.3767 0 0
55.6206 0 0
55.6206 0 0
55.8645 0 0
55.8645 0 0
56.1084 0 0
56.1084 0 0
56.3523 0 0
56.3523 0 0
56.5962 0 0
56.5962 0 0
56.8401 0 0
56.8401 0 0
57.084 0 0
57.084 0 0
57.3279 0 0
57.3279 0 0
57.5718 0 0
57.5718 0 0
57.8157 0 0
57.8157 0 0
58.0596 0 0
58.0596 0 0
58.3035 0 0
58.3035 0 0
58.5474 0 0
58.5474 0 0
58.7913 0 0
58.7913 0 0
59.0352 0 0
59.0352 0 0
59.2791 0 0
59.2791 0 0
59.5229 0 0
59.5229 0 0
59.7668 0 0
59.7668 0 0
60.0107 0 0
60.0107 0 0
60.2546 0 0
60.2546 0 0
60.4985 0 0
60.4985 0 0
60.7424 0 0
60.7424 0 0
60.9863 0 0
60.9863 0 0
61.2302 0 0
61.2302 0 0
61.4741 0 0
61.4741 0 0
61.718 0 0
61.718 0 0
61.9619 0 0
61.9619 0 0
62.2058 0 0
62.2058 0 0
62.4497 0 0
62.4497 0 0
62.6936 0 0
62.6936 0 0
62.9375 0 0
62.9375 0 0
63.1814 0 0
63.1814 0 0
63.4253 0 0
63.4253 0 0
63.6692 0 0
63.6692 0 0
63.9131 0 0
63.9131 0 0
64.157 0 0
64.157 0 0
64.4009 0 0
64.4009 0 0
64.6448 0 0
64.6448 0 0
64.8887 0 0
64.8887 0 0
65.1326 0 0
65.1326 0 0
65.3765 0 0
65.3765 0 0
65.6204 0 0
65.6204 0 0
65.8643 0 0
65.8643 0 0
66.1082 0 0
66.1082 0 0
66.3521 0 0
66.3521 0 0
66.5959 0 0
66.5959 0 0
66.8398 0 0
66.8398 0 0
67.0837 0 0
67.0837 0 0
67.3276 0 0
67.3276 0 0
67.5715 0 0
67.5715 0 0
67.8154 0 0
67.8154 0 0
68.0593 0 0
68.0593 0 0
68.3032 0 0
68.3032 0 0
68.5471 0 0
68.5471 0 0
68.791 0 0
68.791 0 0
69.0349 0 0
69.0349 0 0
69.2788 0 0
69.2788 0 0
69.5227 0 0
69.5227 0 0
69.7666 0 0
69.7666 0 0
70.0105 0 0
70.0105 0 0
70.2544 0 0
70.2544 0 0
70.4983 0 0
70.4983 0 0
70.7422 0 0
70.7422 0 0
70.9861 0 0
70.9861 0 0
71.23 0 0
71.23 0 0
71.4739 0 0
71.4739 0 0
71.7178 0 0
71.7178 0 0
71.9617 0 0
71.9617 0 0
72.2056 0 0
72.2056 0 0
72.4495 0 0
72.4495 0 0
72.6934 0 0
72.6934 0 0
72.9373 0 0
72.9373 0 0
73.1812 0 0
73.1812 0 0
73.425 0 0
73.425 0 0
73.6689 0 0
73.6689 0 0
73.9128 0 0
73.9128 0 0
74.1567 0 0
74.1567 0 0
74.4006 0 0
74.4006 0 0
74.6445 0 0
74.6445 0 0
74.8884 0 0
74.8884 0 0
75.1323 0 0
75.1323 0 0
75.3762 0 0
75.3762 0 0
75.6201 0 0
75.6201 0 0
75.864 0 0
75.864 0 0
76.1079 0 0
76.1079 0 0
76.3518 0 0
76.3518 0 0
76.5957 0 0
76.5957 0 0
76.8396 0 0
76.8396 0 0
77.0835 0 0
77.0835 0 0
77.3274 0 0
77.3274 0 0
77.5713 0 0
77.5713 0 0
77.8152 0 0
77.8152 0 0
78.0591 0 0
78.0591 0 0
78.303 0 0
78.303 0 0
78.5469 0 0
78.5469 0 0
78.7908 0 0
78.7908 0 0
79.0347 0 0
79.0347 0 0
79.2786 0 0
79.2786 0 0
79.5225 0 0
79.5225 0 0
79.7664 0 0
79.7664 0 0
80.0103 0 0
80.0103 0 0
80.2542 0 0
80.2542 0 0
80.498 0 0
80.498 0 0
80.7419 0 0
80.7419 0 0
80.9858 0 0
80.9858 0 0
81.2297 0 0
81.2297 0 0
81.4736 0 0
81.4736 0 0
81.7175 0 0
81.7175 0 0
81.9614 0 0
81.9614 0 0
82.2053 0 0
82.2053 0 0
82.4492 0 0
82.4492 0 0
82.6931 0 0
82.6931 0 0
82.937 0 0
82.937 0 0
83.1809 0 0
83.1809 0 0
83.4248 0 0
83.4248 0 0
83.6687 0 0
83.6687 0 0
83.9126 0 0
83.9126 0 0
84.1565 0 0
84.1565 0 0
84.4004 0 0
84.4004 0 0
84.6443 0 0
84.6443 0 0
84.8882 0 0
84.8882 0 0
85.1321 0 0
85.1321 0 0
85.376 0 0
85.376 0 0
85.6199 0 0
85.6199 0 0
85.8638 0 0
85.8638 0 0
86.1077 0 0
86.1077 0 0
86.3516 0 0
86.3516 0 0
86.5955 0 0
86.5955 0 0
86.8394 0 0
86.8394 0 0
87.0833 0 0
87.0833 0 0
87.3271 0 0
87.3271 0 0
87.571 0 0
87.571 0 0
87.8149 0 0
87.8149 0 0
88.0588 0 0
88.0588 0 0
88.3027 0 0
88.3027 0 0
88.5466 0 0
88.5466 0 0
88.7905 0 0
88.7905 0 0
89.0344 0 0
89.0344 0 0
89.2783 0 0
89.2783 0 0
89.5222 0 0
89.5222 0 0
89.7661 0 0
89.7661 0 0
90.01 0 0
90.01 0 0
90.2539 0 0
90.2539 0 0
90.4978 0 0
90.4978 0 0
90.7417 0 0
90.7417 0 0
90.9856 0 0
90.9856 0 0
91.2295 0 0
91.2295 0 0
91.4734 0 0
91.4734 0 0
91.7173 0 0
91.7173 0 0
91.9612 0 0
91.9612 0 0
92.2051 0 0
92.2051 0 0
92.449 0 0
92.449 0 0
92.6929 0 0
92.6929 0 0
92.9368 0 0
92.9368 0 0
93.1807 0 0
93.1807 0 0
93.4246 0 0
93.4246 0 0
93.6685 0 0
93.6685 0 0
93.9124 0 0
93.9124 0 0
94.1562 0 0
94.1562 0 0
94.4001 0 0
94.4001 0 0
94.644 0 0
94.644 0 0
94.8879 0 0
94.8879 0 0
95.1318 0 0
95.1318 0 0
95.3757 0 0
95.3757 0 0
95.6196 0 0
95.6196 0 0
95.8635 0 0
95.8635 0 0
96.1074 0 0
96.1074 0 0
96.3513 0 0
96.3513 0 0
96.5952 0 0
96.5952 0 0
96.8391 0 0
96.8391 0 0
97.083 0 0
97.083 0 0
97.3269 0 0
97.3269 0 0
97.5708 0 0
97.5708 0 0
97.8147 0 0
97.8147 0 0
98.0586 0 0
98.0586 0 0
98.3025 0 0
98.3025 0 0
98.5464 0 0
98.5464 0 0
98.7903 0 0
98.7903 0 0
99.0342 0 0
99.0342 0 0
99.2781 0 0
99.2781 0 0
99.522 0 0
99.522 0 0
99.7659 0 0
99.7659 0 0
100.01 0 0
100.01 0 0
100.254 0 0
100.254 0 0
100.498 0 0
100.498 0 0
100.741 0 0
100.741 0 0
100.985 0 0
100.985 0 0
101.229 0 0
101.229 0 0
101.473 0 0
[...]
POINT_DATA 4096
SCALARS solution_0 double 1
LOOKUP_TABLE default
1.13699e-05 -4.7842e+09 -4.7842e+09 -1.8852e+09 -1.8852e+09 -1.23043e+09 -1.23043e+09 -9.09515e+08 -9.09515e+08 -7.11752e+08 -7.11752e+08 -5.75556e+08 -5.75556e+08 -4.75448e+08 -4.75448e+08 -3.98678e+08 -3.98678e+08 -3.38035e+08 -3.38035e+08 -2.8908e+08 -2.8908e+08 -2.48902e+08 -2.48902e+08 -2.15497e+08 -2.15497e+08 -1.87434e+08 -1.87434e+08 -1.63657e+08 -1.63657e+08 -1.43371e+08 -1.43371e+08 -1.25958e+08 -1.25958e+08 -1.10937e+08 -1.10937e+08 -9.79226e+07 -9.79226e+07 -8.66035e+07 -8.66035e+07 -7.67264e+07 -7.67264e+07 -6.80824e+07 -6.80824e+07 -6.04977e+07 -6.04977e+07 -5.38272e+07 -5.38272e+07 -4.79483e+07 -4.79483e+07 -4.27574e+07 -4.27574e+07 -3.81661e+07 -3.81661e+07 -3.40989e+07 -3.40989e+07 -3.04908e+07 -3.04908e+07 -2.72858e+07 -2.72858e+07 -2.44354e+07 -2.44354e+07 -2.18976e+07 -2.18976e+07 -1.96359e+07 -1.96359e+07 -1.76182e+07 -1.76182e+07 -1.58167e+07 -1.58167e+07 -1.42069e+07 -1.42069e+07 -1.27672e+07 -1.27672e+07 -1.14788e+07 -1.14788e+07 -1.0325e+07 -1.0325e+07 -9.29098e+06 -9.29098e+06 -8.36388e+06 -8.36388e+06 -7.53212e+06 -7.53212e+06 -6.78551e+06 -6.78551e+06 -6.11499e+06 -6.11499e+06 -5.51253e+06 -5.51253e+06 -4.97096e+06 -4.97096e+06 -4.48393e+06 -4.48393e+06 -4.04576e+06 -4.04576e+06 -3.6514e+06 -3.6514e+06 -3.29634e+06 -3.29634e+06 -2.97655e+06 -2.97655e+06 -2.68842e+06 -2.68842e+06 -2.42875e+06 -2.42875e+06 -2.19464e+06 -2.19464e+06 -1.98352e+06 -1.98352e+06 -1.79307e+06 -1.79307e+06 -1.62123e+06 -1.62123e+06 -1.46614e+06 -1.46614e+06 -1.32613e+06 -1.32613e+06 -1.1997e+06 -1.1997e+06 -1.08551e+06 -1.08551e+06 -982351 -982351 -889138 -889138 -804895 -804895 -728742 -728742 -659891 -659891 -597628 -597628 -541314 -541314 -490371 -490371 -444280 -444280 -402571 -402571 -364822 -364822 -330651 -330651 -299716 -299716 -271705 -271705 -246338 -246338 -223363 -223363 -202552 -202552 -183698 -183698 -166615 -166615 -151136 -151136 -137107 -137107 -124391 -124391 -112865 -112865 -102416 -102416 -92941.3 -92941.3 -84350.4 -84350.4 -76559.7 -76559.7 -69494 -69494 -63085.2 -63085.2 -57271.8 -57271.8 -51997.8 -51997.8 -47212.8 -47212.8 -42871.2 -42871.2 -38931.5 -38931.5 -35356.2 -35356.2 -32111.3 -32111.3 -29166.1 -29166.1 -26492.7 -26492.7 -24065.8 -24065.8 -21862.6 -21862.6 -19862.2 -19862.2 -18045.9 -18045.9 -16396.6 -16396.6 -14898.9 -14898.9 -13538.7 -13538.7 -12303.4 -12303.4 -11181.4 -11181.4 -10162.2 -10162.2 -9236.37 -9236.37 -8395.31 -8395.31 -7631.21 -7631.21 -6936.98 -6936.98 -6306.21 -6306.21 -5733.06 -5733.06 -5212.23 -5212.23 -4738.93 -4738.93 -4308.8 -4308.8 -3917.88 -3917.88 -3562.57 -3562.57 -3239.63 -3239.63 -2946.07 -2946.07 -2679.23 -2679.23 -2436.65 -2436.65 -2216.12 -2216.12 -2015.63 -2015.63 -1833.34 -1833.34 -1667.6 -1667.6 -1516.9 -1516.9 -1379.87 -1379.87 -1255.26 -1255.26 -1141.94 -1141.94 -1038.89 -1038.89 -945.174 -945.174 -859.937 -859.937 -782.413 -782.413 -711.9 -711.9 -647.763 -647.763 -589.423 -589.423 -536.353 -536.353 -488.077 -488.077 -444.159 -444.159 -404.205 -404.205 -367.855 -367.855 -334.785 -334.785 -304.695 -304.695 -277.318 -277.318 -252.408 -252.408 -229.742 -229.742 -209.116 -209.116 -190.347 -190.347 -173.268 -173.268 -157.725 -157.725 -143.58 -143.58 -130.706 -130.706 -118.99 -118.99 -108.327 -108.327 -98.6218 -98.6218 -89.7881 -89.7881 -81.7477 -81.7477 -74.4289 -74.4289 -67.767 -67.767 -61.7027 -61.7027 -56.1824 -56.1824 -51.1571 -51.1571 -46.5823 -46.5823 -42.4175 -42.4175 -38.6259 -38.6259 -35.1739 -35.1739 -32.0312 -32.0312 -29.1698 -29.1698 -26.5646 -26.5646 -24.1925 -24.1925 -22.0327 -22.0327 -20.0661 -20.0661 -18.2754 -18.2754 -16.6448 -16.6448 -15.16 -15.16 -13.8079 -13.8079 -12.5766 -12.5766 -11.4553 -11.4553 -10.4342 -10.4342 -9.50428 -9.50428 -8.65738 -8.65738 -7.88608 -7.88608 -7.18362 -7.18362 -6.54383 -6.54383 -5.9611 -5.9611 -5.43034 -5.43034 -4.94689 -4.94689 -4.50651 -4.50651 -4.10534 -4.10534 -3.73984 -3.73984 -3.40682 -3.40682 -3.10334 -3.10334 -2.82672 -2.82672 -2.57451 -2.57451 -2.34449 -2.34449 -2.13462 -2.13462 -1.94307 -1.94307 -1.76816 -1.76816 -1.60841 -1.60841 -1.46249 -1.46249 -1.32925 -1.32925 -1.20771 -1.20771 -1.09704 -1.09704 -0.996565 -0.996565 -0.905727 -0.905727 -0.82406 -0.82406 -0.751147 -0.751147 -0.686564 -0.686564 -0.629833 -0.629833 -0.580374 -0.580374 -0.537479 -0.537479 -0.500308 -0.500308 -0.467917 -0.467917 -0.43932 -0.43932 -0.413569 -0.413569 -0.389846 -0.389846 -0.367533 -0.367533 -0.346255 -0.346255 -0.325876 -0.325876 -0.306431 -0.306431 -0.288041 -0.288041 -0.2708 -0.2708 -0.254699 -0.254699 -0.239595 -0.239595 -0.225242 -0.225242 -0.211381 -0.211381 -0.197838 -0.197838 -0.184609 -0.184609 -0.171873 -0.171873 -0.15993 -0.15993 -0.149088 -0.149088 -0.139527 -0.139527 -0.13122 -0.13122 -0.123926 -0.123926 -0.117277 -0.117277 -0.110907 -0.110907 -0.104577 -0.104577 -0.0982306 -0.0982306 -0.0919724 -0.0919724 -0.0859889 -0.0859889 -0.0804592 -0.0804592 -0.0755007 -0.0755007 -0.0711578 -0.0711578 -0.0674067 -0.0674067 -0.064141 -0.064141 -0.0611325 -0.0611325 -0.05801 -0.05801 -0.0543219 -0.0543219 -0.049713 -0.049713 -0.0441537 -0.0441537 -0.0380728 -0.0380728 -0.0322372 -0.0322372 -0.0273448 -0.0273448 -0.0234956 -0.0234956 -0.0198656 -0.0198656 -0.0148748 -0.0148748 -0.00688295 -0.00688295 0.00492663 0.00492663 0.0200513 0.0200513 0.0370206 0.0370206 0.0545748 0.0545748 0.0730586 0.0730586 0.0951373 0.0951373 0.125237 0.125237 0.167904 0.167904 0.226084 0.226084 0.300515 0.300515 0.390806 0.390806 0.497573 0.497573 0.624118 0.624118 0.776181 0.776181 0.959491 0.959491 1.17636 1.17636 1.42339 1.42339 1.69173 1.69173 1.96965 1.96965 2.24558 2.24558 2.50938 2.50938 2.7511 2.7511 2.9584 2.9584 3.11513 3.11513 3.20301 3.20301 3.20608 3.20608 3.11577 3.11577 2.93351 2.93351 2.66989 2.66989 2.34112 2.34112 1.96562 1.96562 1.5626 1.5626 1.15293 1.15293 0.760157 0.760157 0.409628 0.409628 0.124611 0.124611 -0.0791243 -0.0791243 -0.197666 -0.197666 -0.23991 -0.23991 -0.224537 -0.224537 -0.174395 -0.174395 -0.110749 -0.110749 -0.0494761 -0.0494761 -4.22978e-05 -4.22978e-05 0.0333781 0.0333781 0.0500347 0.0500347 0.0512646 0.0512646 0.0401127 0.0401127 0.0213988 0.0213988 0.00130469 0.00130469 -0.0140427 -0.0140427 -0.0206041 -0.0206041 -0.0179593 -0.0179593 -0.00928471 -0.00928471 0.000390689 0.000390689 0.00672277 0.00672277 0.00795073 0.00795073 0.00517623 0.00517623 0.00110055 0.00110055 -0.00180056 -0.00180056 -0.00251854 -0.00251854 -0.00159631 -0.00159631 -0.000297171 -0.000297171 0.000404017 0.000404017 0.000338682 0.000338682 -2.67322e-05 -2.67322e-05 -0.000155764 -0.000155764 9.43351e-05 9.43351e-05 0.000433141 0.000433141 0.000473457 0.000473457 0.000111009 0.000111009 -0.00038009 -0.00038009 -0.000596127 -0.000596127 -0.000359684 -0.000359684 0.000131969 0.000131969 0.000483961 0.000483961 0.000437647 0.000437647 6.96171e-05 6.96171e-05 -0.000299668 -0.000299668 -0.000386261 -0.000386261 -0.00016364 -0.00016364 0.000148694 0.000148694 0.000292077 0.000292077 0.000180043 0.000180043 -5.66178e-05 -5.66178e-05 -0.000206216 -0.000206216 -0.000160264 -0.000160264 1.14564e-05 1.14564e-05 0.000144019 0.000144019 0.000130343 0.000130343 5.47742e-06 5.47742e-06 -0.000103283 -0.000103283 -0.000101611 -0.000101611 -8.30348e-06 -8.30348e-06 7.72461e-05 7.72461e-05 7.74239e-05 7.74239e-05 5.35937e-06 5.35937e-06 -6.0086e-05 -6.0086e-05 -5.80186e-05 -5.80186e-05 -8.39124e-07 -8.39124e-07 4.80807e-05 4.80807e-05 4.27114e-05 4.27114e-05 -3.49219e-06 -3.49219e-06 -3.91323e-05 -3.91323e-05 -3.06334e-05 -3.06334e-05 7.0686e-06 7.0686e-06 3.20337e-05 3.20337e-05 2.09731e-05 2.09731e-05 -9.75518e-06 -9.75518e-06 -2.60069e-05 -2.60069e-05 -1.31256e-05 -1.31256e-05 1.148e-05 1.148e-05 2.05567e-05 2.05567e-05 6.76332e-06 6.76332e-06 -1.21745e-05 -1.21745e-05 -1.54633e-05 -1.54633e-05 -1.77539e-06 -1.77539e-06 1.18524e-05 1.18524e-05 1.07353e-05 1.07353e-05 -1.87766e-06 -1.87766e-06 -1.06525e-05 -1.06525e-05 -6.48809e-06 -6.48809e-06 4.2684e-06 4.2684e-06 8.78547e-06 8.78547e-06 2.83918e-06 2.83918e-06 -5.50141e-06 -5.50141e-06 -6.46451e-06 -6.46451e-06 1.00265e-07 1.00265e-07 5.67168e-06 5.67168e-06 3.91456e-06 3.91456e-06 -2.18353e-06 -2.18353e-06 -4.89243e-06 -4.89243e-06 -1.44089e-06 -1.44089e-06 3.25429e-06 3.25429e-06 3.40066e-06 3.40066e-06 -5.66234e-07 -5.66234e-07 -3.28021e-06 -3.28021e-06 -1.61776e-06 -1.61776e-06 1.76737e-06 1.76737e-06 2.48216e-06 2.48216e-06 4.87569e-08 4.87569e-08 -2.06353e-06 -2.06353e-06 -1.30562e-06 -1.30562e-06 9.36443e-07 9.36443e-07 1.66198e-06 1.66198e-06 2.20503e-07 2.20503e-07 -1.25829e-06 -1.25829e-06 -9.42011e-07 -9.42011e-07 4.90055e-07 4.90055e-07 1.08761e-06 1.08761e-06 2.38152e-07 2.38152e-07 -7.8188e-07 -7.8188e-07 -6.70719e-07 -6.70719e-07 2.74153e-07 2.74153e-07 7.43362e-07 7.43362e-07 1.96364e-07 1.96364e-07 -5.38938e-07 -5.38938e-07 -4.81581e-07 -4.81581e-07 2.06973e-07 2.06973e-07 5.43184e-07 5.43184e-07 1.09974e-07 1.09974e-07 -4.26831e-07 -4.26831e-07 -3.2018e-07 -3.2018e-07 2.18192e-07 2.18192e-07 3.93727e-07 3.93727e-07 -2.5552e-09 -2.5552e-09 -3.49921e-07 -3.49921e-07 -1.60373e-07 -1.60373e-07 2.34414e-07 2.34414e-07 2.44597e-07 2.44597e-07 -9.71143e-08 -9.71143e-08 -2.53158e-07 -2.53158e-07 -2.28471e-08 -2.28471e-08 2.07074e-07 2.07074e-07 1.03535e-07 1.03535e-07 -1.33564e-07 -1.33564e-07 -1.39632e-07 -1.39632e-07 5.70949e-08 5.70949e-08 1.37799e-07 1.37799e-07 5.50122e-09 5.50122e-09 -1.10792e-07 -1.10792e-07 -4.61694e-08 -4.61694e-08 7.23555e-08 7.23555e-08 6.4256e-08 6.4256e-08 -3.38242e-08 -3.38242e-08 -6.395e-08 -6.395e-08 2.57795e-09 2.57795e-09 5.16222e-08 5.16222e-08 1.80374e-08 1.80374e-08 -3.3716e-08 -3.3716e-08 -2.78959e-08 -2.78959e-08 1.54372e-08 1.54372e-08 2.89221e-08 2.89221e-08 -2.05713e-10 -2.05713e-10 -2.39613e-08 -2.39613e-08 -1.03243e-08 -1.03243e-08 1.59081e-08 1.59081e-08 1.59095e-08 1.59095e-08 -7.16459e-09 -7.16459e-09 -1.72355e-08 -1.72355e-08 -5.98448e-10 -5.98448e-10 1.5452e-08 1.5452e-08 6.4551e-09 6.4551e-09 -1.18067e-08 -1.18067e-08 -1.01017e-08 -1.01017e-08 7.40518e-09 7.40518e-09 1.16757e-08 1.16757e-08 -3.08798e-09 -3.08798e-09 -1.15715e-08 -1.15715e-08 -6.01044e-10 -6.01044e-10 1.02871e-08 1.02871e-08 3.3869e-09 3.3869e-09 -8.31324e-09 -8.31324e-09 -5.20501e-09 -5.20501e-09 6.06696e-09 6.06696e-09 6.13386e-09 6.13386e-09 -3.86168e-09 -3.86168e-09 -6.3329e-09 -6.3329e-09 1.90348e-09 1.90348e-09 5.99295e-09 5.99295e-09 -3.03613e-10 -3.03613e-10 -5.30138e-09 -5.30138e-09 -9.01015e-10 -9.01015e-10 4.42106e-09 4.42106e-09 1.72562e-09 1.72562e-09 -3.48049e-09 -3.48049e-09 -2.21728e-09 -2.21728e-09 2.57186e-09 2.57186e-09 2.43849e-09 2.43849e-09 -1.75426e-09 -1.75426e-09 -2.45523e-09 -2.45523e-09 1.05938e-09 1.05938e-09 2.32912e-09 2.32912e-09 -4.98189e-10 -4.98189e-10 -2.11302e-09 -2.11302e-09 6.72154e-11 6.72154e-11 1.84926e-09 1.84926e-09 2.45963e-10 2.45963e-10 -1.56961e-09 -1.56961e-09 -4.58451e-10 -4.58451e-10 1.29628e-09 1.29628e-09 5.88911e-10 5.88911e-10 -1.0435e-09 -1.0435e-09 -6.55476e-10 -6.55476e-10 8.19222e-10 8.19222e-10 6.745e-10 6.745e-10 -6.26748e-10 -6.26748e-10 -6.59936e-10 -6.59936e-10 4.66172e-10 4.66172e-10 6.23157e-10 6.23157e-10 -3.35521e-10 -3.35521e-10 -5.73062e-10 -5.73062e-10 2.31657e-10 2.31657e-10 5.16336e-10 5.16336e-10 -1.50921e-10 -1.50921e-10 -4.57792e-10 -4.57792e-10 8.95765e-11 8.95765e-11 4.00721e-10 4.00721e-10 -4.40935e-11 -4.40935e-11 -3.47223e-10 -3.47223e-10 1.13033e-11 1.13033e-11 2.98502e-10 2.98502e-10 1.15289e-11 1.15289e-11 -2.55108e-10 -2.55108e-10 -2.66924e-11 -2.66924e-11 2.17134e-10 2.17134e-10 3.60564e-11 3.60564e-11 -1.8437e-10 -1.8437e-10 -4.11152e-11 -4.11152e-11 1.5642e-10 1.5642e-10 4.30426e-11 4.30426e-11 -1.32786e-10 -1.32786e-10 -4.27469e-11 -4.27469e-11 1.12931e-10 1.12931e-10 4.09227e-11 4.09227e-11 -9.63209e-11 -9.63209e-11 -3.80963e-11 -3.80963e-11 8.245e-11 8.245e-11 3.46629e-11 3.46629e-11 -7.08609e-11 -7.08609e-11 -3.09172e-11 -3.09172e-11 6.11515e-11 6.11515e-11 2.7077e-11 2.7077e-11 -5.29787e-11 -5.29787e-11 -2.33002e-11 -2.33002e-11 4.60567e-11 4.60567e-11 1.96987e-11 1.96987e-11 -4.01526e-11 -4.01526e-11 -1.63474e-11 -1.63474e-11 3.50802e-11 3.50802e-11 1.32917e-11 1.32917e-11 -3.06924e-11 -3.06924e-11 -1.05539e-11 -1.05539e-11 2.68739e-11 2.68739e-11 8.13773e-12 8.13773e-12 -2.35339e-11 -2.35339e-11 -6.03329e-12 -6.03329e-12 2.05997e-11 2.05997e-11 4.22138e-12 4.22138e-12 -1.8012e-11 -1.8012e-11 -2.67735e-12 -2.67735e-12 1.57209e-11 1.57209e-11 1.37451e-12 1.37451e-12 -1.36838e-11 -1.36838e-11 -2.86768e-13 -2.86768e-13 1.18638e-11 1.18638e-11 -6.09523e-13 -6.09523e-13 -1.02297e-11 -1.02297e-11 1.3347e-12 1.3347e-12 8.75536e-12 8.75536e-12 -1.90569e-12 -1.90569e-12 -7.42042e-12 -7.42042e-12 2.33662e-12 2.33662e-12 6.20957e-12 6.20957e-12 -2.63974e-12 -2.63974e-12 -5.11236e-12 -5.11236e-12 2.82659e-12 2.82659e-12 4.12229e-12 4.12229e-12 -2.90885e-12 -2.90885e-12 -3.23562e-12 -3.23562e-12 2.89903e-12 2.89903e-12 2.45019e-12 2.45019e-12 -2.8106e-12 -2.8106e-12 -1.76416e-12 -1.76416e-12 2.65778e-12 2.65778e-12 1.17515e-12 1.17515e-12 -2.45504e-12 -2.45504e-12 -6.79592e-13 -6.79592e-13 2.21646e-12 2.21646e-12 2.72581e-13 2.72581e-13 -1.9551e-12 -1.9551e-12 5.20378e-14 5.20378e-14 1.68253e-12 1.68253e-12 -3.01324e-13 -3.01324e-13 -1.40866e-12 -1.40866e-12 4.82843e-13 4.82843e-13 1.1417e-12 1.1417e-12 -6.04321e-13 -6.04321e-13 -8.88346e-13 -8.88346e-13 6.73421e-13 6.73421e-13 6.5401e-13 6.5401e-13 -6.97675e-13 -6.97675e-13 -4.43001e-13 -4.43001e-13 6.84512e-13 6.84512e-13 2.58628e-13 2.58628e-13 -6.41323e-13 -6.41323e-13 -1.0318e-13 -1.0318e-13 5.75471e-13 5.75471e-13 -2.21724e-14 -2.21724e-14 -4.94199e-13 -4.94199e-13 1.17484e-13 1.17484e-13 4.04421e-13 4.04421e-13 -1.84069e-13 -1.84069e-13 -3.12424e-13 -3.12424e-13 2.24412e-13 2.24412e-13 2.23567e-13 2.23567e-13 -2.41936e-13 -2.41936e-13 -1.42041e-13 -1.42041e-13 2.40656e-13 2.40656e-13 7.07657e-14 7.07657e-14 -2.2479e-13 -2.2479e-13 -1.14369e-14 -1.14369e-14 1.98404e-13 1.98404e-13 -3.52824e-14 -3.52824e-14 -1.65165e-13 -1.65165e-13 6.94993e-14 6.94993e-14 1.28228e-13 1.28228e-13 -9.18256e-14 -9.18256e-14 -9.02539e-14 -9.02539e-14 1.03182e-13 1.03182e-13 5.35033e-14 5.35033e-14 -1.04707e-13 -1.04707e-13 -1.99371e-14 -1.99371e-14 9.77621e-14 9.77621e-14 -8.74099e-15 -8.74099e-15 -8.39873e-14 -8.39873e-14 3.11316e-14 3.11316e-14 6.53456e-14 6.53456e-14 -4.62704e-14 -4.62704e-14 -4.40842e-14 -4.40842e-14 5.37928e-14 5.37928e-14 2.25873e-14 2.25873e-14 -5.4061e-14 -5.4061e-14 -3.12747e-15 -3.12747e-15 4.81875e-14 4.81875e-14 -1.24316e-14 -1.24316e-14 -3.79135e-14 -3.79135e-14 2.29019e-14 2.29019e-14 2.535e-14 2.535e-14 -2.79304e-14 -2.79304e-14 -1.26309e-14 -1.26309e-14 2.79985e-14 2.79985e-14 1.5609e-15 1.5609e-15 -2.42539e-14 -2.42539e-14 6.656e-15 6.656e-15 1.82181e-14 1.82181e-14 -1.15418e-14 -1.15418e-14 -1.14434e-14 -1.14434e-14 1.33015e-14 1.33015e-14 5.20886e-15 5.20886e-15 -1.26368e-14 -1.26368e-14 -3.25647e-16 -3.25647e-16 1.04801e-14 1.04801e-14 -2.91083e-15 -2.91083e-15 -7.72834e-15 -7.72834e-15 4.63367e-15 4.63367e-15 5.04861e-15 5.04861e-15 -5.22886e-15 -5.22886e-15 -2.7956e-15 -2.7956e-15 5.13898e-15 5.13898e-15 1.04226e-15 1.04226e-15 -4.70974e-15 -4.70974e-15 3.11031e-16 3.11031e-16 4.11859e-15 4.11859e-15 -1.40303e-15 -1.40303e-15 -3.391e-15 -3.391e-15 2.30718e-15 2.30718e-15 2.47822e-15 2.47822e-15 -2.99008e-15 -2.99008e-15 -1.35257e-15 -1.35257e-15 3.33787e-15 3.33787e-15 7.63581e-17 7.63581e-17 -3.22872e-15 -3.22872e-15 1.18323e-15 1.18323e-15 2.6137e-15 2.6137e-15 -2.19587e-15 -2.19587e-15 -1.5692e-15 -1.5692e-15 2.74595e-15 2.74595e-15 2.98078e-16 2.98078e-16 -2.71278e-15 -2.71278e-15 9.20661e-16 9.20661e-16 2.12041e-15 2.12041e-15 -1.81393e-15 -1.81393e-15 -1.13773e-15 -1.13773e-15 2.19714e-15 2.19714e-15 2.93748e-17 2.93748e-17 -2.02741e-15 -2.02741e-15 9.23885e-16 9.23885e-16 1.40987e-15 1.40987e-15 -1.50672e-15 -1.50672e-15 -5.57351e-16 -5.57351e-16 1.62532e-15 1.62532e-15 -2.80099e-16 -2.80099e-16 -1.32172e-15 -1.32172e-15 8.90435e-16 8.90435e-16 7.45415e-16 7.45415e-16 -1.15496e-15 -1.15496e-15 -9.61724e-17 -9.61724e-17 1.06862e-15 1.06862e-15 -4.40558e-16 -4.40558e-16 -7.23399e-16 -7.23399e-16 7.4426e-16 7.4426e-16 2.65308e-16 2.65308e-16 -7.82327e-16 -7.82327e-16 1.57445e-16 1.57445e-16 6.02766e-16 6.02766e-16 -4.37539e-16 -4.37539e-16 -3.04213e-16 -3.04213e-16 5.31101e-16 5.31101e-16 -3.21171e-18 -3.21171e-18 -4.56737e-16 -4.56737e-16 2.32282e-16 2.32282e-16 2.76136e-16 2.76136e-16 -3.38696e-16 -3.38696e-16 -6.61799e-17 -6.61799e-17 3.23748e-16 3.23748e-16 -1.06958e-16 -1.06958e-16 -2.22842e-16 -2.22842e-16 2.04296e-16 2.04296e-16 8.67277e-17 8.67277e-17 -2.18402e-16 -2.18402e-16 3.70314e-17 3.70314e-17 1.67376e-16 1.67376e-16 -1.16867e-16 -1.16867e-16 -8.2982e-17 -8.2982e-17 1.41991e-16 1.41991e-16 -2.00904e-18 -2.00904e-18 -1.19943e-16 -1.19943e-16 6.33616e-17 6.33616e-17 6.95804e-17 6.95804e-17 -8.99312e-17 -8.99312e-17 -1.27863e-17 -1.27863e-17 8.33388e-17 8.33388e-17 -3.24526e-17 -3.24526e-17 -5.41975e-17 -5.41975e-17 5.60793e-17 5.60793e-17 1.68437e-17 1.68437e-17 -5.6792e-17 -5.6792e-17 1.56314e-17 1.56314e-17 4.02595e-17 4.02595e-17 -3.48075e-17 -3.48075e-17 -1.58262e-17 -1.58262e-17 3.82632e-17 3.82632e-17 -7.07067e-18 -7.07067e-18 -2.89029e-17 -2.89029e-17 2.17296e-17 2.17296e-17 1.28752e-17 1.28752e-17 -2.56087e-17 -2.56087e-17 3.04878e-18 3.04878e-18 2.01877e-17 2.01877e-17 -1.37514e-17 -1.37514e-17 -9.59604e-18 -9.59604e-18 1.70516e-17 1.70516e-17 -1.33474e-18 -1.33474e-18 -1.37597e-17 -1.37597e-17 8.8463e-18 8.8463e-18 6.71274e-18 6.71274e-18 -1.12837e-17 -1.12837e-17 6.79886e-19 6.79886e-19 9.16616e-18 9.16616e-18 -5.76668e-18 -5.76668e-18 -4.46993e-18 -4.46993e-18 7.40451e-18 7.40451e-18 -4.44684e-19 -4.44684e-19 -5.98066e-18 -5.98066e-18 3.78269e-18 3.78269e-18 2.86799e-18 2.86799e-18 -4.81287e-18 -4.81287e-18 3.4227e-19 3.4227e-19 3.83965e-18 3.83965e-18 -2.48113e-18 -2.48113e-18 -1.79781e-18 -1.79781e-18 3.10566e-18 3.10566e-18 -2.70939e-19 -2.70939e-19 -2.4455e-18 -2.4455e-18 1.62646e-18 1.62646e-18 1.1178e-18 1.1178e-18 -2.00393e-18 -2.00393e-18 2.11012e-19 2.11012e-19 1.56186e-18 1.56186e-18 -1.0748e-18 -1.0748e-18 -6.96384e-19 -6.96384e-19 1.30758e-18 1.30758e-18 -1.67405e-19 -1.67405e-19 -1.00895e-18 -1.00895e-18 7.27847e-19 7.27847e-19 4.32199e-19 4.32199e-19 -8.71528e-19 -8.71528e-19 1.43505e-19 1.43505e-19 6.58868e-19 6.58868e-19 -5.12662e-19 -5.12662e-19 -2.58825e-19 -2.58825e-19 5.93847e-19 5.93847e-19 -1.34597e-19 -1.34597e-19 -4.2855e-19 -4.2855e-19 3.75477e-19 3.75477e-19 1.39545e-19 1.39545e-19 -4.08245e-19 -4.08245e-19 1.31125e-19 1.31125e-19 2.69967e-19 2.69967e-19 -2.80231e-19 -2.80231e-19 -5.73066e-20 -5.73066e-20 2.76437e-19 2.76437e-19 -1.24403e-19 -1.24403e-19 -1.58542e-19 -1.58542e-19 2.06702e-19 2.06702e-19 4.55499e-21 4.55499e-21 -1.79418e-19 -1.79418e-19 1.10405e-19 1.10405e-19 8.23193e-20 8.23193e-20 -1.46528e-19 -1.46528e-19 2.39602e-20 2.39602e-20 1.08855e-19 1.08855e-19 -9.01748e-20 -9.01748e-20 -3.40556e-20 -3.40556e-20 9.8002e-20 9.8002e-20 -3.43437e-20 -3.43437e-20 -6.03824e-20 -6.03824e-20 6.77216e-20 6.77216e-20 7.12633e-21 7.12633e-21 -6.1385e-20 -6.1385e-20 3.34962e-20 3.34962e-20 2.98801e-20 2.98801e-20 -4.72299e-20 -4.72299e-20 5.31717e-21 5.31717e-21 3.61074e-20 3.61074e-20 -2.76075e-20 -2.76075e-20 -1.2531e-20 -1.2531e-20 3.11635e-20 3.11635e-20 -9.46854e-21 -9.46854e-21 -2.00954e-20 -2.00954e-20 2.08567e-20 2.08567e-20 3.53079e-21 3.53079e-21 -1.98729e-20 -1.98729e-20 9.8194e-21 9.8194e-21 1.0502e-20 1.0502e-20 -1.51424e-20 -1.51424e-20 8.94082e-22 8.94082e-22 1.23407e-20 1.23407e-20 -8.84128e-21 -8.84128e-21 -4.76804e-21 -4.76804e-21 1.07422e-20 1.07422e-20 -3.02284e-21 -3.02284e-21 -7.24355e-21 -7.24355e-21 7.46122e-21 7.46122e-21 1.23526e-21 1.23526e-21 -7.28738e-21 -7.28738e-21 3.88538e-21 3.88538e-21 3.65284e-21 3.65284e-21 -5.86875e-21 -5.86875e-21 8.83287e-22 8.83287e-22 4.4645e-21 4.4645e-21 -3.86398e-21 -3.86398e-21 -1.16223e-21 -1.16223e-21 4.1459e-21 4.1459e-21 -1.9062e-21 -1.9062e-21 -2.22698e-21 -2.22698e-21 3.20771e-21 3.20771e-21 -3.55427e-22 -3.55427e-22 -2.49