# vtk DataFile Version 3.0
#This file was generated by the deal.II library on 2020/9/6 at 2:49:13
ASCII
DATASET UNSTRUCTURED_GRID

POINTS 4096 double
1.5 0 0
1.59692 0 0
1.59692 0 0
1.69385 0 0
1.69385 0 0
1.79077 0 0
1.79077 0 0
1.8877 0 0
1.8877 0 0
1.98462 0 0
1.98462 0 0
2.08154 0 0
2.08154 0 0
2.17847 0 0
2.17847 0 0
2.27539 0 0
2.27539 0 0
2.37231 0 0
2.37231 0 0
2.46924 0 0
2.46924 0 0
2.56616 0 0
2.56616 0 0
2.66309 0 0
2.66309 0 0
2.76001 0 0
2.76001 0 0
2.85693 0 0
2.85693 0 0
2.95386 0 0
2.95386 0 0
3.05078 0 0
3.05078 0 0
3.14771 0 0
3.14771 0 0
3.24463 0 0
3.24463 0 0
3.34155 0 0
3.34155 0 0
3.43848 0 0
3.43848 0 0
3.5354 0 0
3.5354 0 0
3.63232 0 0
3.63232 0 0
3.72925 0 0
3.72925 0 0
3.82617 0 0
3.82617 0 0
3.9231 0 0
3.9231 0 0
4.02002 0 0
4.02002 0 0
4.11694 0 0
4.11694 0 0
4.21387 0 0
4.21387 0 0
4.31079 0 0
4.31079 0 0
4.40771 0 0
4.40771 0 0
4.50464 0 0
4.50464 0 0
4.60156 0 0
4.60156 0 0
4.69849 0 0
4.69849 0 0
4.79541 0 0
4.79541 0 0
4.89233 0 0
4.89233 0 0
4.98926 0 0
4.98926 0 0
5.08618 0 0
5.08618 0 0
5.18311 0 0
5.18311 0 0
5.28003 0 0
5.28003 0 0
5.37695 0 0
5.37695 0 0
5.47388 0 0
5.47388 0 0
5.5708 0 0
5.5708 0 0
5.66772 0 0
5.66772 0 0
5.76465 0 0
5.76465 0 0
5.86157 0 0
5.86157 0 0
5.9585 0 0
5.9585 0 0
6.05542 0 0
6.05542 0 0
6.15234 0 0
6.15234 0 0
6.24927 0 0
6.24927 0 0
6.34619 0 0
6.34619 0 0
6.44312 0 0
6.44312 0 0
6.54004 0 0
6.54004 0 0
6.63696 0 0
6.63696 0 0
6.73389 0 0
6.73389 0 0
6.83081 0 0
6.83081 0 0
6.92773 0 0
6.92773 0 0
7.02466 0 0
7.02466 0 0
7.12158 0 0
7.12158 0 0
7.21851 0 0
7.21851 0 0
7.31543 0 0
7.31543 0 0
7.41235 0 0
7.41235 0 0
7.50928 0 0
7.50928 0 0
7.6062 0 0
7.6062 0 0
7.70312 0 0
7.70312 0 0
7.80005 0 0
7.80005 0 0
7.89697 0 0
7.89697 0 0
7.9939 0 0
7.9939 0 0
8.09082 0 0
8.09082 0 0
8.18774 0 0
8.18774 0 0
8.28467 0 0
8.28467 0 0
8.38159 0 0
8.38159 0 0
8.47852 0 0
8.47852 0 0
8.57544 0 0
8.57544 0 0
8.67236 0 0
8.67236 0 0
8.76929 0 0
8.76929 0 0
8.86621 0 0
8.86621 0 0
8.96313 0 0
8.96313 0 0
9.06006 0 0
9.06006 0 0
9.15698 0 0
9.15698 0 0
9.25391 0 0
9.25391 0 0
9.35083 0 0
9.35083 0 0
9.44775 0 0
9.44775 0 0
9.54468 0 0
9.54468 0 0
9.6416 0 0
9.6416 0 0
9.73853 0 0
9.73853 0 0
9.83545 0 0
9.83545 0 0
9.93237 0 0
9.93237 0 0
10.0293 0 0
10.0293 0 0
10.1262 0 0
10.1262 0 0
10.2231 0 0
10.2231 0 0
10.3201 0 0
10.3201 0 0
10.417 0 0
10.417 0 0
10.5139 0 0
10.5139 0 0
10.6108 0 0
10.6108 0 0
10.7078 0 0
10.7078 0 0
10.8047 0 0
10.8047 0 0
10.9016 0 0
10.9016 0 0
10.9985 0 0
10.9985 0 0
11.0955 0 0
11.0955 0 0
11.1924 0 0
11.1924 0 0
11.2893 0 0
11.2893 0 0
11.3862 0 0
11.3862 0 0
11.4832 0 0
11.4832 0 0
11.5801 0 0
11.5801 0 0
11.677 0 0
11.677 0 0
11.7739 0 0
11.7739 0 0
11.8708 0 0
11.8708 0 0
11.9678 0 0
11.9678 0 0
12.0647 0 0
12.0647 0 0
12.1616 0 0
12.1616 0 0
12.2585 0 0
12.2585 0 0
12.3555 0 0
12.3555 0 0
12.4524 0 0
12.4524 0 0
12.5493 0 0
12.5493 0 0
12.6462 0 0
12.6462 0 0
12.7432 0 0
12.7432 0 0
12.8401 0 0
12.8401 0 0
12.937 0 0
12.937 0 0
13.0339 0 0
13.0339 0 0
13.1309 0 0
13.1309 0 0
13.2278 0 0
13.2278 0 0
13.3247 0 0
13.3247 0 0
13.4216 0 0
13.4216 0 0
13.5186 0 0
13.5186 0 0
13.6155 0 0
13.6155 0 0
13.7124 0 0
13.7124 0 0
13.8093 0 0
13.8093 0 0
13.9062 0 0
13.9062 0 0
14.0032 0 0
14.0032 0 0
14.1001 0 0
14.1001 0 0
14.197 0 0
14.197 0 0
14.2939 0 0
14.2939 0 0
14.3909 0 0
14.3909 0 0
14.4878 0 0
14.4878 0 0
14.5847 0 0
14.5847 0 0
14.6816 0 0
14.6816 0 0
14.7786 0 0
14.7786 0 0
14.8755 0 0
14.8755 0 0
14.9724 0 0
14.9724 0 0
15.0693 0 0
15.0693 0 0
15.1663 0 0
15.1663 0 0
15.2632 0 0
15.2632 0 0
15.3601 0 0
15.3601 0 0
15.457 0 0
15.457 0 0
15.554 0 0
15.554 0 0
15.6509 0 0
15.6509 0 0
15.7478 0 0
15.7478 0 0
15.8447 0 0
15.8447 0 0
15.9417 0 0
15.9417 0 0
16.0386 0 0
16.0386 0 0
16.1355 0 0
16.1355 0 0
16.2324 0 0
16.2324 0 0
16.3293 0 0
16.3293 0 0
16.4263 0 0
16.4263 0 0
16.5232 0 0
16.5232 0 0
16.6201 0 0
16.6201 0 0
16.717 0 0
16.717 0 0
16.814 0 0
16.814 0 0
16.9109 0 0
16.9109 0 0
17.0078 0 0
17.0078 0 0
17.1047 0 0
17.1047 0 0
17.2017 0 0
17.2017 0 0
17.2986 0 0
17.2986 0 0
17.3955 0 0
17.3955 0 0
17.4924 0 0
17.4924 0 0
17.5894 0 0
17.5894 0 0
17.6863 0 0
17.6863 0 0
17.7832 0 0
17.7832 0 0
17.8801 0 0
17.8801 0 0
17.9771 0 0
17.9771 0 0
18.074 0 0
18.074 0 0
18.1709 0 0
18.1709 0 0
18.2678 0 0
18.2678 0 0
18.3647 0 0
18.3647 0 0
18.4617 0 0
18.4617 0 0
18.5586 0 0
18.5586 0 0
18.6555 0 0
18.6555 0 0
18.7524 0 0
18.7524 0 0
18.8494 0 0
18.8494 0 0
18.9463 0 0
18.9463 0 0
19.0432 0 0
19.0432 0 0
19.1401 0 0
19.1401 0 0
19.2371 0 0
19.2371 0 0
19.334 0 0
19.334 0 0
19.4309 0 0
19.4309 0 0
19.5278 0 0
19.5278 0 0
19.6248 0 0
19.6248 0 0
19.7217 0 0
19.7217 0 0
19.8186 0 0
19.8186 0 0
19.9155 0 0
19.9155 0 0
20.0125 0 0
20.0125 0 0
20.1094 0 0
20.1094 0 0
20.2063 0 0
20.2063 0 0
20.3032 0 0
20.3032 0 0
20.4001 0 0
20.4001 0 0
20.4971 0 0
20.4971 0 0
20.594 0 0
20.594 0 0
20.6909 0 0
20.6909 0 0
20.7878 0 0
20.7878 0 0
20.8848 0 0
20.8848 0 0
20.9817 0 0
20.9817 0 0
21.0786 0 0
21.0786 0 0
21.1755 0 0
21.1755 0 0
21.2725 0 0
21.2725 0 0
21.3694 0 0
21.3694 0 0
21.4663 0 0
21.4663 0 0
21.5632 0 0
21.5632 0 0
21.6602 0 0
21.6602 0 0
21.7571 0 0
21.7571 0 0
21.854 0 0
21.854 0 0
21.9509 0 0
21.9509 0 0
22.0479 0 0
22.0479 0 0
22.1448 0 0
22.1448 0 0
22.2417 0 0
22.2417 0 0
22.3386 0 0
22.3386 0 0
22.4355 0 0
22.4355 0 0
22.5325 0 0
22.5325 0 0
22.6294 0 0
22.6294 0 0
22.7263 0 0
22.7263 0 0
22.8232 0 0
22.8232 0 0
22.9202 0 0
22.9202 0 0
23.0171 0 0
23.0171 0 0
23.114 0 0
23.114 0 0
23.2109 0 0
23.2109 0 0
23.3079 0 0
23.3079 0 0
23.4048 0 0
23.4048 0 0
23.5017 0 0
23.5017 0 0
23.5986 0 0
23.5986 0 0
23.6956 0 0
23.6956 0 0
23.7925 0 0
23.7925 0 0
23.8894 0 0
23.8894 0 0
23.9863 0 0
23.9863 0 0
24.0833 0 0
24.0833 0 0
24.1802 0 0
24.1802 0 0
24.2771 0 0
24.2771 0 0
24.374 0 0
24.374 0 0
24.4709 0 0
24.4709 0 0
24.5679 0 0
24.5679 0 0
24.6648 0 0
24.6648 0 0
24.7617 0 0
24.7617 0 0
24.8586 0 0
24.8586 0 0
24.9556 0 0
24.9556 0 0
25.0525 0 0
25.0525 0 0
25.1494 0 0
25.1494 0 0
25.2463 0 0
25.2463 0 0
25.3433 0 0
25.3433 0 0
25.4402 0 0
25.4402 0 0
25.5371 0 0
25.5371 0 0
25.634 0 0
25.634 0 0
25.731 0 0
25.731 0 0
25.8279 0 0
25.8279 0 0
25.9248 0 0
25.9248 0 0
26.0217 0 0
26.0217 0 0
26.1187 0 0
26.1187 0 0
26.2156 0 0
26.2156 0 0
26.3125 0 0
26.3125 0 0
26.4094 0 0
26.4094 0 0
26.5063 0 0
26.5063 0 0
26.6033 0 0
26.6033 0 0
26.7002 0 0
26.7002 0 0
26.7971 0 0
26.7971 0 0
26.894 0 0
26.894 0 0
26.991 0 0
26.991 0 0
27.0879 0 0
27.0879 0 0
27.1848 0 0
27.1848 0 0
27.2817 0 0
27.2817 0 0
27.3787 0 0
27.3787 0 0
27.4756 0 0
27.4756 0 0
27.5725 0 0
27.5725 0 0
27.6694 0 0
27.6694 0 0
27.7664 0 0
27.7664 0 0
27.8633 0 0
27.8633 0 0
27.9602 0 0
27.9602 0 0
28.0571 0 0
28.0571 0 0
28.1541 0 0
28.1541 0 0
28.251 0 0
28.251 0 0
28.3479 0 0
28.3479 0 0
28.4448 0 0
28.4448 0 0
28.5417 0 0
28.5417 0 0
28.6387 0 0
28.6387 0 0
28.7356 0 0
28.7356 0 0
28.8325 0 0
28.8325 0 0
28.9294 0 0
28.9294 0 0
29.0264 0 0
29.0264 0 0
29.1233 0 0
29.1233 0 0
29.2202 0 0
29.2202 0 0
29.3171 0 0
29.3171 0 0
29.4141 0 0
29.4141 0 0
29.511 0 0
29.511 0 0
29.6079 0 0
29.6079 0 0
29.7048 0 0
29.7048 0 0
29.8018 0 0
29.8018 0 0
29.8987 0 0
29.8987 0 0
29.9956 0 0
29.9956 0 0
30.0925 0 0
30.0925 0 0
30.1895 0 0
30.1895 0 0
30.2864 0 0
30.2864 0 0
30.3833 0 0
30.3833 0 0
30.4802 0 0
30.4802 0 0
30.5771 0 0
30.5771 0 0
30.6741 0 0
30.6741 0 0
30.771 0 0
30.771 0 0
30.8679 0 0
30.8679 0 0
30.9648 0 0
30.9648 0 0
31.0618 0 0
31.0618 0 0
31.1587 0 0
31.1587 0 0
31.2556 0 0
31.2556 0 0
31.3525 0 0
31.3525 0 0
31.4495 0 0
31.4495 0 0
31.5464 0 0
31.5464 0 0
31.6433 0 0
31.6433 0 0
31.7402 0 0
31.7402 0 0
31.8372 0 0
31.8372 0 0
31.9341 0 0
31.9341 0 0
32.031 0 0
32.031 0 0
32.1279 0 0
32.1279 0 0
32.2249 0 0
32.2249 0 0
32.3218 0 0
32.3218 0 0
32.4187 0 0
32.4187 0 0
32.5156 0 0
32.5156 0 0
32.6125 0 0
32.6125 0 0
32.7095 0 0
32.7095 0 0
32.8064 0 0
32.8064 0 0
32.9033 0 0
32.9033 0 0
33.0002 0 0
33.0002 0 0
33.0972 0 0
33.0972 0 0
33.1941 0 0
33.1941 0 0
33.291 0 0
33.291 0 0
33.3879 0 0
33.3879 0 0
33.4849 0 0
33.4849 0 0
33.5818 0 0
33.5818 0 0
33.6787 0 0
33.6787 0 0
33.7756 0 0
33.7756 0 0
33.8726 0 0
33.8726 0 0
33.9695 0 0
33.9695 0 0
34.0664 0 0
34.0664 0 0
34.1633 0 0
34.1633 0 0
34.2603 0 0
34.2603 0 0
34.3572 0 0
34.3572 0 0
34.4541 0 0
34.4541 0 0
34.551 0 0
34.551 0 0
34.6479 0 0
34.6479 0 0
34.7449 0 0
34.7449 0 0
34.8418 0 0
34.8418 0 0
34.9387 0 0
34.9387 0 0
35.0356 0 0
35.0356 0 0
35.1326 0 0
35.1326 0 0
35.2295 0 0
35.2295 0 0
35.3264 0 0
35.3264 0 0
35.4233 0 0
35.4233 0 0
35.5203 0 0
35.5203 0 0
35.6172 0 0
35.6172 0 0
35.7141 0 0
35.7141 0 0
35.811 0 0
35.811 0 0
35.908 0 0
35.908 0 0
36.0049 0 0
36.0049 0 0
36.1018 0 0
36.1018 0 0
36.1987 0 0
36.1987 0 0
36.2957 0 0
36.2957 0 0
36.3926 0 0
36.3926 0 0
36.4895 0 0
36.4895 0 0
36.5864 0 0
36.5864 0 0
36.6833 0 0
36.6833 0 0
36.7803 0 0
36.7803 0 0
36.8772 0 0
36.8772 0 0
36.9741 0 0
36.9741 0 0
37.071 0 0
37.071 0 0
37.168 0 0
37.168 0 0
37.2649 0 0
37.2649 0 0
37.3618 0 0
37.3618 0 0
37.4587 0 0
37.4587 0 0
37.5557 0 0
37.5557 0 0
37.6526 0 0
37.6526 0 0
37.7495 0 0
37.7495 0 0
37.8464 0 0
37.8464 0 0
37.9434 0 0
37.9434 0 0
38.0403 0 0
38.0403 0 0
38.1372 0 0
38.1372 0 0
38.2341 0 0
38.2341 0 0
38.3311 0 0
38.3311 0 0
38.428 0 0
38.428 0 0
38.5249 0 0
38.5249 0 0
38.6218 0 0
38.6218 0 0
38.7188 0 0
38.7188 0 0
38.8157 0 0
38.8157 0 0
38.9126 0 0
38.9126 0 0
39.0095 0 0
39.0095 0 0
39.1064 0 0
39.1064 0 0
39.2034 0 0
39.2034 0 0
39.3003 0 0
39.3003 0 0
39.3972 0 0
39.3972 0 0
39.4941 0 0
39.4941 0 0
39.5911 0 0
39.5911 0 0
39.688 0 0
39.688 0 0
39.7849 0 0
39.7849 0 0
39.8818 0 0
39.8818 0 0
39.9788 0 0
39.9788 0 0
40.0757 0 0
40.0757 0 0
40.1726 0 0
40.1726 0 0
40.2695 0 0
40.2695 0 0
40.3665 0 0
40.3665 0 0
40.4634 0 0
40.4634 0 0
40.5603 0 0
40.5603 0 0
40.6572 0 0
40.6572 0 0
40.7542 0 0
40.7542 0 0
40.8511 0 0
40.8511 0 0
40.948 0 0
40.948 0 0
41.0449 0 0
41.0449 0 0
41.1418 0 0
41.1418 0 0
41.2388 0 0
41.2388 0 0
41.3357 0 0
41.3357 0 0
41.4326 0 0
41.4326 0 0
41.5295 0 0
41.5295 0 0
[...]
POINT_DATA 4096
SCALARS solution_0 double 1
LOOKUP_TABLE default
128.621 125.942 125.942 123.677 123.677 121.744 121.744 120.079 120.079 118.63 118.63 117.359 117.359 116.235 116.235 115.232 115.232 114.331 114.331 113.514 113.514 112.768 112.768 112.082 112.082 111.447 111.447 110.854 110.854 110.297 110.297 109.771 109.771 109.271 109.271 108.793 108.793 108.333 108.333 107.889 107.889 107.458 107.458 107.038 107.038 106.627 106.627 106.223 106.223 105.826 105.826 105.434 105.434 105.046 105.046 104.661 104.661 104.279 104.279 103.898 103.898 103.518 103.518 103.14 103.14 102.761 102.761 102.382 102.382 102.004 102.004 101.624 101.624 101.244 101.244 100.863 100.863 100.48 100.48 100.097 100.097 99.712 99.712 99.3258 99.3258 98.9382 98.9382 98.5491 98.5491 98.1585 98.1585 97.7664 97.7664 97.3728 97.3728 96.9778 96.9778 96.5812 96.5812 96.1833 96.1833 95.7839 95.7839 95.3831 95.3831 94.9811 94.9811 94.5777 94.5777 94.1732 94.1732 93.7675 93.7675 93.3606 93.3606 92.9527 92.9527 92.5438 92.5438 92.134 92.134 91.7233 91.7233 91.3118 91.3118 90.8995 90.8995 90.4865 90.4865 90.073 90.073 89.6588 89.6588 89.2442 89.2442 88.8291 88.8291 88.4136 88.4136 87.9978 87.9978 87.5818 87.5818 87.1655 87.1655 86.7492 86.7492 86.3327 86.3327 85.9162 85.9162 85.4997 85.4997 85.0834 85.0834 84.6671 84.6671 84.2511 84.2511 83.8353 83.8353 83.4198 83.4198 83.0046 83.0046 82.5898 82.5898 82.1755 82.1755 81.7616 81.7616 81.3483 81.3483 80.9355 80.9355 80.5233 80.5233 80.1118 80.1118 79.701 79.701 79.2909 79.2909 78.8816 78.8816 78.4731 78.4731 78.0655 78.0655 77.6587 77.6587 77.2528 77.2528 76.8479 76.8479 76.4439 76.4439 76.041 76.041 75.6391 75.6391 75.2382 75.2382 74.8385 74.8385 74.4399 74.4399 74.0424 74.0424 73.6461 73.6461 73.251 73.251 72.8571 72.8571 72.4644 72.4644 72.073 72.073 71.683 71.683 71.2942 71.2942 70.9067 70.9067 70.5206 70.5206 70.1358 70.1358 69.7525 69.7525 69.3705 69.3705 68.9899 68.9899 68.6108 68.6108 68.2331 68.2331 67.8568 67.8568 67.4821 67.4821 67.1088 67.1088 66.737 66.737 66.3668 66.3668 65.998 65.998 65.6308 65.6308 65.2651 65.2651 64.9009 64.9009 64.5384 64.5384 64.1773 64.1773 63.8179 63.8179 63.46 63.46 63.1038 63.1038 62.7491 62.7491 62.396 62.396 62.0445 62.0445 61.6947 61.6947 61.3464 61.3464 60.9998 60.9998 60.6548 60.6548 60.3115 60.3115 59.9697 59.9697 59.6296 59.6296 59.2912 59.2912 58.9544 58.9544 58.6192 58.6192 58.2856 58.2856 57.9538 57.9538 57.6235 57.6235 57.2949 57.2949 56.968 56.968 56.6427 56.6427 56.319 56.319 55.997 55.997 55.6767 55.6767 55.358 55.358 55.041 55.041 54.7255 54.7255 54.4118 54.4118 54.0997 54.0997 53.7892 53.7892 53.4804 53.4804 53.1733 53.1733 52.8677 52.8677 52.5639 52.5639 52.2617 52.2617 51.9611 51.9611 51.6621 51.6621 51.3648 51.3648 51.0692 51.0692 50.7752 50.7752 50.4828 50.4828 50.1921 50.1921 49.9029 49.9029 49.6154 49.6154 49.3296 49.3296 49.0453 49.0453 48.7626 48.7626 48.4815 48.4815 48.202 48.202 47.9241 47.9241 47.6477 47.6477 47.3728 47.3728 47.0995 47.0995 46.8276 46.8276 46.5572 46.5572 46.2883 46.2883 46.0208 46.0208 45.7547 45.7547 45.49 45.49 45.2267 45.2267 44.9647 44.9647 44.704 44.704 44.4446 44.4446 44.1866 44.1866 43.9298 43.9298 43.6743 43.6743 43.42 43.42 43.167 43.167 42.9153 42.9153 42.6647 42.6647 42.4155 42.4155 42.1674 42.1674 41.9206 41.9206 41.6751 41.6751 41.4309 41.4309 41.1879 41.1879 40.9462 40.9462 40.7058 40.7058 40.4667 40.4667 40.229 40.229 39.9925 39.9925 39.7574 39.7574 39.5236 39.5236 39.291 39.291 39.0597 39.0597 38.8295 38.8295 38.6004 38.6004 38.3721 38.3721 38.1446 38.1446 37.9177 37.9177 37.6909 37.6909 37.464 37.464 37.2365 37.2365 37.008 37.008 36.7779 36.7779 36.5457 36.5457 36.3107 36.3107 36.0725 36.0725 35.8305 35.8305 35.5844 35.5844 35.334 35.334 35.0793 35.0793 34.8204 34.8204 34.5581 34.5581 34.2932 34.2932 34.0269 34.0269 33.7606 33.7606 33.4962 33.4962 33.2353 33.2353 32.98 32.98 32.732 32.732 32.4929 32.4929 32.2642 32.2642 32.0469 32.0469 31.8417 31.8417 31.649 31.649 31.4688 31.4688 31.3009 31.3009 31.1451 31.1451 31.0009 31.0009 30.8683 30.8683 30.747 30.747 30.6372 30.6372 30.5392 30.5392 30.4533 30.4533 30.3802 30.3802 30.3203 30.3203 30.2742 30.2742 30.242 30.242 30.224 30.224 30.2199 30.2199 30.2293 30.2293 30.2515 30.2515 30.2853 30.2853 30.3294 30.3294 30.3821 30.3821 30.4417 30.4417 30.5058 30.5058 30.5721 30.5721 30.6379 30.6379 30.7006 30.7006 30.7571 30.7571 30.8045 30.8045 30.8399 30.8399 30.8603 30.8603 30.8631 30.8631 30.8456 30.8456 30.8057 30.8057 30.7414 30.7414 30.6514 30.6514 30.5345 30.5345 30.3902 30.3902 30.2185 30.2185 30.0198 30.0198 29.7951 29.7951 29.5459 29.5459 29.274 29.274 28.9816 28.9816 28.6714 28.6714 28.3461 28.3461 28.0088 28.0088 27.6625 27.6625 27.3104 27.3104 26.9554 26.9554 26.6006 26.6006 26.2485 26.2485 25.9018 25.9018 25.5625 25.5625 25.2326 25.2326 24.9135 24.9135 24.6066 24.6066 24.3126 24.3126 24.0321 24.0321 23.7653 23.7653 23.5123 23.5123 23.2727 23.2727 23.0461 23.0461 22.8319 22.8319 22.6294 22.6294 22.4377 22.4377 22.2559 22.2559 22.0832 22.0832 21.9186 21.9186 21.7614 21.7614 21.6106 21.6106 21.4654 21.4654 21.3252 21.3252 21.1893 21.1893 21.0572 21.0572 20.9282 20.9282 20.8021 20.8021 20.6784 20.6784 20.5567 20.5567 20.4368 20.4368 20.3186 20.3186 20.2017 20.2017 20.0861 20.0861 19.9717 19.9717 19.8583 19.8583 19.7458 19.7458 19.6343 19.6343 19.5236 19.5236 19.4137 19.4137 19.3046 19.3046 19.1963 19.1963 19.0887 19.0887 18.9818 18.9818 18.8757 18.8757 18.7703 18.7703 18.6656 18.6656 18.5616 18.5616 18.4582 18.4582 18.3556 18.3556 18.2536 18.2536 18.1523 18.1523 18.0516 18.0516 17.9516 17.9516 17.8523 17.8523 17.7535 17.7535 17.6555 17.6555 17.558 17.558 17.4612 17.4612 17.365 17.365 17.2695 17.2695 17.1745 17.1745 17.0801 17.0801 16.9864 16.9864 16.8932 16.8932 16.8007 16.8007 16.7087 16.7087 16.6173 16.6173 16.5265 16.5265 16.4362 16.4362 16.3465 16.3465 16.2574 16.2574 16.1689 16.1689 16.0809 16.0809 15.9934 15.9934 15.9065 15.9065 15.8202 15.8202 15.7343 15.7343 15.649 15.649 15.5643 15.5643 15.48 15.48 15.3963 15.3963 15.3131 15.3131 15.2304 15.2304 15.1482 15.1482 15.0665 15.0665 14.9853 14.9853 14.9046 14.9046 14.8244 14.8244 14.7447 14.7447 14.6655 14.6655 14.5867 14.5867 14.5084 14.5084 14.4306 14.4306 14.3533 14.3533 14.2764 14.2764 14.2 14.2 14.124 14.124 14.0485 14.0485 13.9735 13.9735 13.8989 13.8989 13.8247 13.8247 13.751 13.751 13.6777 13.6777 13.6048 13.6048 13.5324 13.5324 13.4604 13.4604 13.3888 13.3888 13.3177 13.3177 13.2469 13.2469 13.1766 13.1766 13.1067 13.1067 13.0372 13.0372 12.968 12.968 12.8993 12.8993 12.831 12.831 12.7631 12.7631 12.6956 12.6956 12.6285 12.6285 12.5617 12.5617 12.4953 12.4953 12.4293 12.4293 12.3637 12.3637 12.2985 12.2985 12.2336 12.2336 12.1691 12.1691 12.105 12.105 12.0412 12.0412 11.9778 11.9778 11.9148 11.9148 11.8521 11.8521 11.7898 11.7898 11.7278 11.7278 11.6661 11.6661 11.6048 11.6048 11.5439 11.5439 11.4832 11.4832 11.423 11.423 11.363 11.363 11.3034 11.3034 11.2441 11.2441 11.1852 11.1852 11.1266 11.1266 11.0682 11.0682 11.0103 11.0103 10.9526 10.9526 10.8952 10.8952 10.8382 10.8382 10.7815 10.7815 10.7251 10.7251 10.669 10.669 10.6132 10.6132 10.5576 10.5576 10.5024 10.5024 10.4475 10.4475 10.3929 10.3929 10.3386 10.3386 10.2846 10.2846 10.2309 10.2309 10.1774 10.1774 10.1243 10.1243 10.0714 10.0714 10.0188 10.0188 9.96651 9.96651 9.91448 9.91448 9.86273 9.86273 9.81125 9.81125 9.76004 9.76004 9.7091 9.7091 9.65843 9.65843 9.60803 9.60803 9.55789 9.55789 9.50802 9.50802 9.45841 9.45841 9.40905 9.40905 9.35996 9.35996 9.31112 9.31112 9.26254 9.26254 9.2142 9.2142 9.16612 9.16612 9.11829 9.11829 9.07071 9.07071 9.02337 9.02337 8.97627 8.97627 8.92942 8.92942 8.88281 8.88281 8.83644 8.83644 8.79031 8.79031 8.74441 8.74441 8.69875 8.69875 8.65332 8.65332 8.60812 8.60812 8.56315 8.56315 8.51841 8.51841 8.4739 8.4739 8.42961 8.42961 8.38554 8.38554 8.3417 8.3417 8.29808 8.29808 8.25468 8.25468 8.2115 8.2115 8.16853 8.16853 8.12578 8.12578 8.08325 8.08325 8.04092 8.04092 7.99881 7.99881 7.95691 7.95691 7.91521 7.91521 7.87372 7.87372 7.83244 7.83244 7.79136 7.79136 7.75049 7.75049 7.70982 7.70982 7.66934 7.66934 7.62907 7.62907 7.58899 7.58899 7.54912 7.54912 7.50943 7.50943 7.46994 7.46994 7.43065 7.43065 7.39155 7.39155 7.35263 7.35263 7.31391 7.31391 7.27537 7.27537 7.23702 7.23702 7.19886 7.19886 7.16088 7.16088 7.12309 7.12309 7.08547 7.08547 7.04804 7.04804 7.01079 7.01079 6.97372 6.97372 6.93683 6.93683 6.90011 6.90011 6.86357 6.86357 6.8272 6.8272 6.79101 6.79101 6.75498 6.75498 6.71914 6.71914 6.68346 6.68346 6.64795 6.64795 6.6126 6.6126 6.57743 6.57743 6.54242 6.54242 6.50758 6.50758 6.4729 6.4729 6.43838 6.43838 6.40403 6.40403 6.36984 6.36984 6.33581 6.33581 6.30193 6.30193 6.26822 6.26822 6.23466 6.23466 6.20126 6.20126 6.16802 6.16802 6.13493 6.13493 6.10199 6.10199 6.06921 6.06921 6.03657 6.03657 6.00409 6.00409 5.97176 5.97176 5.93958 5.93958 5.90755 5.90755 5.87566 5.87566 5.84392 5.84392 5.81233 5.81233 5.78088 5.78088 5.74957 5.74957 5.71841 5.71841 5.68739 5.68739 5.65651 5.65651 5.62578 5.62578 5.59518 5.59518 5.56472 5.56472 5.5344 5.5344 5.50422 5.50422 5.47417 5.47417 5.44426 5.44426 5.41448 5.41448 5.38484 5.38484 5.35534 5.35534 5.32596 5.32596 5.29672 5.29672 5.26761 5.26761 5.23862 5.23862 5.20977 5.20977 5.18105 5.18105 5.15245 5.15245 5.12399 5.12399 5.09565 5.09565 5.06743 5.06743 5.03934 5.03934 5.01138 5.01138 4.98354 4.98354 4.95582 4.95582 4.92823 4.92823 4.90076 4.90076 4.8734 4.8734 4.84617 4.84617 4.81906 4.81906 4.79207 4.79207 4.7652 4.7652 4.73844 4.73844 4.7118 4.7118 4.68528 4.68528 4.65887 4.65887 4.63258 4.63258 4.60641 4.60641 4.58034 4.58034 4.55439 4.55439 4.52856 4.52856 4.50283 4.50283 4.47722 4.47722 4.45172 4.45172 4.42633 4.42633 4.40105 4.40105 4.37587 4.37587 4.35081 4.35081 4.32585 4.32585 4.301 4.301 4.27626 4.27626 4.25162 4.25162 4.22709 4.22709 4.20266 4.20266 4.17834 4.17834 4.15412 4.15412 4.13001 4.13001 4.106 4.106 4.08209 4.08209 4.05828 4.05828 4.03457 4.03457 4.01097 4.01097 3.98746 3.98746 3.96405 3.96405 3.94074 3.94074 3.91753 3.91753 3.89442 3.89442 3.87141 3.87141 3.84849 3.84849 3.82567 3.82567 3.80294 3.80294 3.78031 3.78031 3.75778 3.75778 3.73534 3.73534 3.71299 3.71299 3.69074 3.69074 3.66857 3.66857 3.64651 3.64651 3.62453 3.62453 3.60264 3.60264 3.58085 3.58085 3.55914 3.55914 3.53753 3.53753 3.51601 3.51601 3.49457 3.49457 3.47322 3.47322 3.45196 3.45196 3.43079 3.43079 3.40971 3.40971 3.38871 3.38871 3.3678 3.3678 3.34698 3.34698 3.32624 3.32624 3.30558 3.30558 3.28501 3.28501 3.26452 3.26452 3.24412 3.24412 3.2238 3.2238 3.20357 3.20357 3.18341 3.18341 3.16334 3.16334 3.14335 3.14335 3.12344 3.12344 3.10361 3.10361 3.08386 3.08386 3.0642 3.0642 3.04461 3.04461 3.0251 3.0251 3.00567 3.00567 2.98631 2.98631 2.96704 2.96704 2.94784 2.94784 2.92872 2.92872 2.90968 2.90968 2.89071 2.89071 2.87182 2.87182 2.85301 2.85301 2.83427 2.83427 2.8156 2.8156 2.79701 2.79701 2.7785 2.7785 2.76005 2.76005 2.74169 2.74169 2.72339 2.72339 2.70517 2.70517 2.68702 2.68702 2.66894 2.66894 2.65093 2.65093 2.63299 2.63299 2.61513 2.61513 2.59733 2.59733 2.57961 2.57961 2.56195 2.56195 2.54437 2.54437 2.52685 2.52685 2.50941 2.50941 2.49203 2.49203 2.47472 2.47472 2.45748 2.45748 2.4403 2.4403 2.42319 2.42319 2.40615 2.40615 2.38918 2.38918 2.37227 2.37227 2.35543 2.35543 2.33865 2.33865 2.32194 2.32194 2.3053 2.3053 2.28871 2.28871 2.2722 2.2722 2.25574 2.25574 2.23935 2.23935 2.22303 2.22303 2.20677 2.20677 2.19057 2.19057 2.17443 2.17443 2.15835 2.15835 2.14234 2.14234 2.12639 2.12639 2.1105 2.1105 2.09467 2.09467 2.0789 2.0789 2.06319 2.06319 2.04755 2.04755 2.03196 2.03196 2.01643 2.01643 2.00096 2.00096 1.98555 1.98555 1.9702 1.9702 1.95491 1.95491 1.93967 1.93967 1.9245 1.9245 1.90938 1.90938 1.89432 1.89432 1.87931 1.87931 1.86437 1.86437 1.84948 1.84948 1.83464 1.83464 1.81987 1.81987 1.80514 1.80514 1.79048 1.79048 1.77587 1.77587 1.76131 1.76131 1.74681 1.74681 1.73236 1.73236 1.71797 1.71797 1.70363 1.70363 1.68935 1.68935 1.67512 1.67512 1.66094 1.66094 1.64682 1.64682 1.63275 1.63275 1.61873 1.61873 1.60476 1.60476 1.59085 1.59085 1.57698 1.57698 1.56317 1.56317 1.54941 1.54941 1.53571 1.53571 1.52205 1.52205 1.50844 1.50844 1.49489 1.49489 1.48138 1.48138 1.46793 1.46793 1.45452 1.45452 1.44116 1.44116 1.42786 1.42786 1.4146 1.4146 1.40139 1.40139 1.38823 1.38823 1.37512 1.37512 1.36206 1.36206 1.34904 1.34904 1.33607 1.33607 1.32316 1.32316 1.31028 1.31028 1.29746 1.29746 1.28468 1.28468 1.27195 1.27195 1.25926 1.25926 1.24663 1.24663 1.23403 1.23403 1.22149 1.22149 1.20899 1.20899 1.19653 1.19653 1.18412 1.18412 1.17176 1.17176 1.15944 1.15944 1.14717 1.14717 1.13494 1.13494 1.12275 1.12275 1.11061 1.11061 1.09851 1.09851 1.08646 1.08646 1.07445 1.07445 1.06248 1.06248 1.05056 1.05056 1.03868 1.03868 1.02684 1.02684 1.01505 1.01505 1.0033 1.0033 0.991587 0.991587 0.979919 0.979919 0.968294 0.968294 0.95671 0.95671 0.945167 0.945167 0.933666 0.933666 0.922207 0.922207 0.910788 0.910788 0.89941 0.89941 0.888073 0.888073 0.876776 0.876776 0.86552 0.86552 0.854303 0.854303 0.843127 0.843127 0.831991 0.831991 0.820894 0.820894 0.809837 0.809837 0.798819 0.798819 0.78784 0.78784 0.7769 0.7769 0.765999 0.765999 0.755137 0.755137 0.744313 0.744313 0.733528 0.733528 0.722781 0.722781 0.712071 0.712071 0.7014 0.7014 0.690766 0.690766 0.68017 0.68017 0.669611 0.669611 0.659089 0.659089 0.648605 0.648605 0.638157 0.638157 0.627746 0.627746 0.617371 0.617371 0.607033 0.607033 0.596732 0.596732 0.586466 0.586466 0.576237 0.576237 0.566043 0.566043 0.555885 0.555885 0.545762 0.545762 0.535675 0.535675 0.525623 0.525623 0.515606 0.515606 0.505625 0.505625 0.495677 0.495677 0.485765 0.485765 0.475887 0.475887 0.466044 0.466044 0.456234 0.456234 0.446459 0.446459 0.436718 0.436718 0.427011 0.427011 0.417337 0.417337 0.407697 0.407697 0.39809 0.39809 0.388516 0.388516 0.378976 0.378976 0.369468 0.369468 0.359994 0.359994 0.350552 0.350552 0.341143 0.341143 0.331766 0.331766 0.322421 0.322421 0.313109 0.313109 0.303829 0.303829 0.29458 0.29458 0.285364 0.285364 0.276179 0.276179 0.267025 0.267025 0.257904 0.257904 0.248813 0.248813 0.239753 0.239753 0.230725 0.230725 0.221727 0.221727 0.212761 0.212761 0.203825 0.203825 0.194919 0.194919 0.186044 0.186044 0.177199 0.177199 0.168384 0.168384 0.1596 0.1596 0.150845 0.150845 0.14212 0.14212 0.133425 0.133425 0.12476 0.12476 0.116123 0.116123 0.107517 0.107517 0.0989391 0.0989391 0.0903906 0.0903906 0.0818711 0.0818711 0.0733805 0.0733805 0.0649187 0.0649187 0.0564855 0.0564855 0.0480808 0.0480808 0.0397046 0.0397046 0.0313566 0.0313566 0.0230369 0.0230369 0.0147453 0.0147453 0.0064816 0.0064816 -0.0017542 -0.0017542 -0.00996225 -0.00996225 -0.0181427 -0.0181427 -0.0262955 -0.0262955 -0.0344209 -0.0344209 -0.0425191 -0.0425191 -0.0505899 -0.0505899 -0.0586337 -0.0586337 -0.0666505 -0.0666505 -0.0746404 -0.0746404 -0.0826035 -0.0826035 -0.0905399 -0.0905399 -0.0984497 -0.0984497 -0.106333 -0.106333 -0.11419 -0.11419 -0.122021 -0.122021 -0.129825 -0.129825 -0.137604 -0.137604 -0.145356 -0.145356 -0.153083 -0.153083 -0.160783 -0.160783 -0.168459 -0.168459 -0.176108 -0.176108 -0.183732 -0.183732 -0.191331 -0.191331 -0.198904 -0.198904 -0.206453 -0.206453 -0.213976 -0.213976 -0.221474 -0.221474 -0.228947 -0.228947 -0.236396 -0.236396 -0.24382 -0.24382 -0.251219 -0.251219 -0.258594 -0.258594 -0.265944 -0.265944 -0.27327 -0.27327 -0.280572 -0.280572 -0.287849 -0.287849 -0.295103 -0.295103 -0.302332 -0.302332 -0.309538 -0.309538 -0.31672 -0.31672 -0.323878 -0.323878 -0.331013 -0.331013 -0.338124 -0.338124 -0.345212 -0.345212 -0.352276 -0.352276 -0.359317 -0.359317 -0.366335 -0.366335 -0.37333 -0.37333 -0.380302 -0.380302 -0.387251 -0.387251 -0.394178 -0.394178 -0.401081 -0.401081 -0.407962 -0.407962 -0.41482 -0.41482 -0.421656 -0.421656 -0.42847 -0.42847 -0.435261 -0.435261 -0.44203 -0.44203 -0.448777 -0.448777 -0.455502 -0.455502 -0.462205 -0.462205 -0.468886 -0.468886 -0.475545 -0.475545 -0.482183 -0.482183 -0.488798 -0.488798 -0.495393 -0.495393 -0.501965 -0.501965 -0.508517 -0.508517 -0.515047 -0.515047 -0.521556 -0.521556 -0.528044 -0.528044 -0.53451 -0.53451 -0.540956 -0.540956 -0.54738 -0.54738 -0.553784 -0.553784 -0.560167 -0.560167 -0.56653 -0.56653 -0.572871 -0.572871 -0.579193 -0.579193 -0.585493 -0.585493 -0.591774 -0.591774 -0.598034 -0.598034 -0.604273 -0.604273 -0.610493 -0.610493 -0.616693 -0.616693 -0.622872 -0.622872 -0.629032 -0.629032 -0.635171 -0.635171 -0.641291 -0.641291 -0.647391 -0.647391 -0.653472 -0.653472 -0.659533 -0.659533 -0.665574 -0.665574 -0.671596 -0.671596 -0.677598 -0.677598 -0.683582 -0.683582 -0.689546 -0.689546 -0.69549 -0.69549 -0.701416 -0.701416 -0.707323 -0.707323 -0.713211 -0.713211 -0.719079 -0.719079 -0.72493 -0.72493 -0.730761 -0.730761 -0.736573 -0.736573 -0.742367 -0.742367 -0.748143 -0.748143 -0.7539 -0.7539 -0.759638 -0.759638 -0.765359 -0.765359 -0.77106 -0.77106 -0.776744 -0.776744 -0.78241 -0.78241 -0.788057 -0.788057 -0.793687 -0.793687 -0.799298 -0.799298 -0.804892 -0.804892 -0.810467 -0.810467 -0.816025 -0.816025 -0.821565 -0.821565 -0.827088 -0.827088 -0.832593 -0.832593 -0.838081 -0.838081 -0.843551 -0.843551 -0.849003 -0.849003 -0.854439 -0.854439 -0.859857 -0.859857 -0.865258 -0.865258 -0.870641 -0.870641 -0.876008 -0.876008 -0.881357 -0.881357 -0.88669 -0.88669 -0.892006 -0.892006 -0.897305 -0.897305 -0.902587 -0.902587 -0.907852 -0.907852 -0.913101 -0.913101 -0.918333 -0.918333 -0.923548 -0.923548 -0.928747 -0.928747 -0.93393 -0.93393 -0.939096 -0.939096 -0.944246 -0.944246 -0.94938 -0.94938 -0.954497 -0.954497 -0.959599 -0.959599 -0.964684 -0.964684 -0.969753 -0.969753 -0.974806 -0.974806 -0.979843 -0.979843 -0.984865 -0.984865 -0.98987 -0.98987 -0.99486 -0.99486 -0.999834 -0.999834 -1.00479 -1.00479 -1.00974 -1.00974 -1.01466 -1.01466 -1.01957 -1.01957 -1.02447 -1.02447 -1.02935 -1.02935 -1.03422 -1.03422 -1.03907 -1.03907 -1.0439 -1.0439 -1.04872 -1.04872 -1.05353 -1.05353 -1.05832 -1.05832 -1.06309 -1.06309 -1.06785 -1.06785 -1.0726 -1.0726 -1.07733 -1.07733 -1.08204 -1.08204 -1.08674 -1.08674 -1.09143 -1.09143 -1.0961 -1.0961 -1.10076 -1.10076 -1.1054 -1.1054 -1.11003 -1.11003 -1.11464 -1.11464 -1.11924 -1.11924 -1.12382 -1.12382 -1.12839 -1.12839 -1.13295 -1.13295 -1.13749 -1.13749 -1.14202 -1.14202 -1.14653 -1.14653 -1.15103 -1.15103 -1.15551 -1.15551 -1.15999 -1.15999 -1.16444 -1.16444 -1.16889 -1.16889 -1.17332 -1.17332 -1.17773 -1.17773 -1.18213 -1.18213 -1.18652 -1.18652 -1.1909 -1.1909 -1.19526 -1.19526 -1.1996 -1.1996 -1.20394 -1.20394 -1.20826 -1.20826 -1.21257 -1.21257 -1.21686 -1.21686 -1.22114 -1.22114 -1.22541 -1.22541 -1.22966 -1.22966 -1.2339 -1.2339 -1.23813 -1.23813 -1.24234 -1.24234 -1.24655 -1.24655 -1.25073 -1.25073 -1.25491 -1.25491 -1.25907 -1.25907 -1.26322 -1.26322 -1.26736 -1.26736 -1.27148 -1.27148 -1.27559 -1.27559 -1.27969 -1.27969 -1.28378 -1.28378 -1.28785 -1.28785 -1.29191 -1.29191 -1.29596 -1.29596 -1.3 -1.3 -1.30402 -1.30402 -1.30803 -1.30803 -1.31203 -1.31203 -1.31601 -1.31601 -1.31999 -1.31999 -1.32395 -1.32395 -1.3279 -1.3279 -1.33183 -1.33183 -1.33576 -1.33576 -1.33967 -1.33967 -1.34357 -1.34357 -1.34746 -1.34746 -1.35134 -1.35134 -1.3552 -1.3552 -1.35906 -1.35906 -1.3629 -1.3629 -1.36673 -1.36673 -1.37054 -1.37054 -1.37435 -1.37435 -1.37814 -1.37814 -1.38193 -1.38193 -1.3857 -1.3857 -1.38946 -1.38946 -1.3932 -1.3932 -1.39694 -1.39694 -1.40066 -1.40066 -1.40438 -1.40438 -1.40808 -1.40808 -1.41177 -1.41177 -1.41545 -1.41545 -1.41912 -1.41912 -1.42277 -1.42277 -1.42642 -1.42642 -1.43005 -1.43005 -1.43367 -1.43367 -1.43729 -1.43729 -1.44089 -1.44089 -1.44448 -1.44448 -1.44805 -1.44805 -1.45162 -1.45162 -1.45518 -1.45518 -1.45873 -1.45873 -1.46226 -1.46226 -1.46578 -1.46578 -1.4693 -1.4693 -1.4728 -1.4728 -1.47629 -1.47629 -1.47977 -1.47977 -1.48324 -1.48324 -1.4867 -1.4867 -1.49015 -1.49015 -1.49359 -1.49359 -1.49702 -1.49702 -1.50044 -1.50044 -1.50385 -1.50385 -1.50724 -1.50724 -1.51063 -1.51063 -1.51401 -1.51401 -1.51737 -1.51737 -1.52073 -1.52073 -1.52407 -1.52407 -1.52741 -1.52741 -1.53073 -1.53073 -1.53