# vtk DataFile Version 3.0
#This file was generated by the deal.II library on 2020/9/6 at 2:47:46
ASCII
DATASET UNSTRUCTURED_GRID

POINTS 4096 double
1.5 0 0
1.59692 0 0
1.59692 0 0
1.69385 0 0
1.69385 0 0
1.79077 0 0
1.79077 0 0
1.8877 0 0
1.8877 0 0
1.98462 0 0
1.98462 0 0
2.08154 0 0
2.08154 0 0
2.17847 0 0
2.17847 0 0
2.27539 0 0
2.27539 0 0
2.37231 0 0
2.37231 0 0
2.46924 0 0
2.46924 0 0
2.56616 0 0
2.56616 0 0
2.66309 0 0
2.66309 0 0
2.76001 0 0
2.76001 0 0
2.85693 0 0
2.85693 0 0
2.95386 0 0
2.95386 0 0
3.05078 0 0
3.05078 0 0
3.14771 0 0
3.14771 0 0
3.24463 0 0
3.24463 0 0
3.34155 0 0
3.34155 0 0
3.43848 0 0
3.43848 0 0
3.5354 0 0
3.5354 0 0
3.63232 0 0
3.63232 0 0
3.72925 0 0
3.72925 0 0
3.82617 0 0
3.82617 0 0
3.9231 0 0
3.9231 0 0
4.02002 0 0
4.02002 0 0
4.11694 0 0
4.11694 0 0
4.21387 0 0
4.21387 0 0
4.31079 0 0
4.31079 0 0
4.40771 0 0
4.40771 0 0
4.50464 0 0
4.50464 0 0
4.60156 0 0
4.60156 0 0
4.69849 0 0
4.69849 0 0
4.79541 0 0
4.79541 0 0
4.89233 0 0
4.89233 0 0
4.98926 0 0
4.98926 0 0
5.08618 0 0
5.08618 0 0
5.18311 0 0
5.18311 0 0
5.28003 0 0
5.28003 0 0
5.37695 0 0
5.37695 0 0
5.47388 0 0
5.47388 0 0
5.5708 0 0
5.5708 0 0
5.66772 0 0
5.66772 0 0
5.76465 0 0
5.76465 0 0
5.86157 0 0
5.86157 0 0
5.9585 0 0
5.9585 0 0
6.05542 0 0
6.05542 0 0
6.15234 0 0
6.15234 0 0
6.24927 0 0
6.24927 0 0
6.34619 0 0
6.34619 0 0
6.44312 0 0
6.44312 0 0
6.54004 0 0
6.54004 0 0
6.63696 0 0
6.63696 0 0
6.73389 0 0
6.73389 0 0
6.83081 0 0
6.83081 0 0
6.92773 0 0
6.92773 0 0
7.02466 0 0
7.02466 0 0
7.12158 0 0
7.12158 0 0
7.21851 0 0
7.21851 0 0
7.31543 0 0
7.31543 0 0
7.41235 0 0
7.41235 0 0
7.50928 0 0
7.50928 0 0
7.6062 0 0
7.6062 0 0
7.70312 0 0
7.70312 0 0
7.80005 0 0
7.80005 0 0
7.89697 0 0
7.89697 0 0
7.9939 0 0
7.9939 0 0
8.09082 0 0
8.09082 0 0
8.18774 0 0
8.18774 0 0
8.28467 0 0
8.28467 0 0
8.38159 0 0
8.38159 0 0
8.47852 0 0
8.47852 0 0
8.57544 0 0
8.57544 0 0
8.67236 0 0
8.67236 0 0
8.76929 0 0
8.76929 0 0
8.86621 0 0
8.86621 0 0
8.96313 0 0
8.96313 0 0
9.06006 0 0
9.06006 0 0
9.15698 0 0
9.15698 0 0
9.25391 0 0
9.25391 0 0
9.35083 0 0
9.35083 0 0
9.44775 0 0
9.44775 0 0
9.54468 0 0
9.54468 0 0
9.6416 0 0
9.6416 0 0
9.73853 0 0
9.73853 0 0
9.83545 0 0
9.83545 0 0
9.93237 0 0
9.93237 0 0
10.0293 0 0
10.0293 0 0
10.1262 0 0
10.1262 0 0
10.2231 0 0
10.2231 0 0
10.3201 0 0
10.3201 0 0
10.417 0 0
10.417 0 0
10.5139 0 0
10.5139 0 0
10.6108 0 0
10.6108 0 0
10.7078 0 0
10.7078 0 0
10.8047 0 0
10.8047 0 0
10.9016 0 0
10.9016 0 0
10.9985 0 0
10.9985 0 0
11.0955 0 0
11.0955 0 0
11.1924 0 0
11.1924 0 0
11.2893 0 0
11.2893 0 0
11.3862 0 0
11.3862 0 0
11.4832 0 0
11.4832 0 0
11.5801 0 0
11.5801 0 0
11.677 0 0
11.677 0 0
11.7739 0 0
11.7739 0 0
11.8708 0 0
11.8708 0 0
11.9678 0 0
11.9678 0 0
12.0647 0 0
12.0647 0 0
12.1616 0 0
12.1616 0 0
12.2585 0 0
12.2585 0 0
12.3555 0 0
12.3555 0 0
12.4524 0 0
12.4524 0 0
12.5493 0 0
12.5493 0 0
12.6462 0 0
12.6462 0 0
12.7432 0 0
12.7432 0 0
12.8401 0 0
12.8401 0 0
12.937 0 0
12.937 0 0
13.0339 0 0
13.0339 0 0
13.1309 0 0
13.1309 0 0
13.2278 0 0
13.2278 0 0
13.3247 0 0
13.3247 0 0
13.4216 0 0
13.4216 0 0
13.5186 0 0
13.5186 0 0
13.6155 0 0
13.6155 0 0
13.7124 0 0
13.7124 0 0
13.8093 0 0
13.8093 0 0
13.9062 0 0
13.9062 0 0
14.0032 0 0
14.0032 0 0
14.1001 0 0
14.1001 0 0
14.197 0 0
14.197 0 0
14.2939 0 0
14.2939 0 0
14.3909 0 0
14.3909 0 0
14.4878 0 0
14.4878 0 0
14.5847 0 0
14.5847 0 0
14.6816 0 0
14.6816 0 0
14.7786 0 0
14.7786 0 0
14.8755 0 0
14.8755 0 0
14.9724 0 0
14.9724 0 0
15.0693 0 0
15.0693 0 0
15.1663 0 0
15.1663 0 0
15.2632 0 0
15.2632 0 0
15.3601 0 0
15.3601 0 0
15.457 0 0
15.457 0 0
15.554 0 0
15.554 0 0
15.6509 0 0
15.6509 0 0
15.7478 0 0
15.7478 0 0
15.8447 0 0
15.8447 0 0
15.9417 0 0
15.9417 0 0
16.0386 0 0
16.0386 0 0
16.1355 0 0
16.1355 0 0
16.2324 0 0
16.2324 0 0
16.3293 0 0
16.3293 0 0
16.4263 0 0
16.4263 0 0
16.5232 0 0
16.5232 0 0
16.6201 0 0
16.6201 0 0
16.717 0 0
16.717 0 0
16.814 0 0
16.814 0 0
16.9109 0 0
16.9109 0 0
17.0078 0 0
17.0078 0 0
17.1047 0 0
17.1047 0 0
17.2017 0 0
17.2017 0 0
17.2986 0 0
17.2986 0 0
17.3955 0 0
17.3955 0 0
17.4924 0 0
17.4924 0 0
17.5894 0 0
17.5894 0 0
17.6863 0 0
17.6863 0 0
17.7832 0 0
17.7832 0 0
17.8801 0 0
17.8801 0 0
17.9771 0 0
17.9771 0 0
18.074 0 0
18.074 0 0
18.1709 0 0
18.1709 0 0
18.2678 0 0
18.2678 0 0
18.3647 0 0
18.3647 0 0
18.4617 0 0
18.4617 0 0
18.5586 0 0
18.5586 0 0
18.6555 0 0
18.6555 0 0
18.7524 0 0
18.7524 0 0
18.8494 0 0
18.8494 0 0
18.9463 0 0
18.9463 0 0
19.0432 0 0
19.0432 0 0
19.1401 0 0
19.1401 0 0
19.2371 0 0
19.2371 0 0
19.334 0 0
19.334 0 0
19.4309 0 0
19.4309 0 0
19.5278 0 0
19.5278 0 0
19.6248 0 0
19.6248 0 0
19.7217 0 0
19.7217 0 0
19.8186 0 0
19.8186 0 0
19.9155 0 0
19.9155 0 0
20.0125 0 0
20.0125 0 0
20.1094 0 0
20.1094 0 0
20.2063 0 0
20.2063 0 0
20.3032 0 0
20.3032 0 0
20.4001 0 0
20.4001 0 0
20.4971 0 0
20.4971 0 0
20.594 0 0
20.594 0 0
20.6909 0 0
20.6909 0 0
20.7878 0 0
20.7878 0 0
20.8848 0 0
20.8848 0 0
20.9817 0 0
20.9817 0 0
21.0786 0 0
21.0786 0 0
21.1755 0 0
21.1755 0 0
21.2725 0 0
21.2725 0 0
21.3694 0 0
21.3694 0 0
21.4663 0 0
21.4663 0 0
21.5632 0 0
21.5632 0 0
21.6602 0 0
21.6602 0 0
21.7571 0 0
21.7571 0 0
21.854 0 0
21.854 0 0
21.9509 0 0
21.9509 0 0
22.0479 0 0
22.0479 0 0
22.1448 0 0
22.1448 0 0
22.2417 0 0
22.2417 0 0
22.3386 0 0
22.3386 0 0
22.4355 0 0
22.4355 0 0
22.5325 0 0
22.5325 0 0
22.6294 0 0
22.6294 0 0
22.7263 0 0
22.7263 0 0
22.8232 0 0
22.8232 0 0
22.9202 0 0
22.9202 0 0
23.0171 0 0
23.0171 0 0
23.114 0 0
23.114 0 0
23.2109 0 0
23.2109 0 0
23.3079 0 0
23.3079 0 0
23.4048 0 0
23.4048 0 0
23.5017 0 0
23.5017 0 0
23.5986 0 0
23.5986 0 0
23.6956 0 0
23.6956 0 0
23.7925 0 0
23.7925 0 0
23.8894 0 0
23.8894 0 0
23.9863 0 0
23.9863 0 0
24.0833 0 0
24.0833 0 0
24.1802 0 0
24.1802 0 0
24.2771 0 0
24.2771 0 0
24.374 0 0
24.374 0 0
24.4709 0 0
24.4709 0 0
24.5679 0 0
24.5679 0 0
24.6648 0 0
24.6648 0 0
24.7617 0 0
24.7617 0 0
24.8586 0 0
24.8586 0 0
24.9556 0 0
24.9556 0 0
25.0525 0 0
25.0525 0 0
25.1494 0 0
25.1494 0 0
25.2463 0 0
25.2463 0 0
25.3433 0 0
25.3433 0 0
25.4402 0 0
25.4402 0 0
25.5371 0 0
25.5371 0 0
25.634 0 0
25.634 0 0
25.731 0 0
25.731 0 0
25.8279 0 0
25.8279 0 0
25.9248 0 0
25.9248 0 0
26.0217 0 0
26.0217 0 0
26.1187 0 0
26.1187 0 0
26.2156 0 0
26.2156 0 0
26.3125 0 0
26.3125 0 0
26.4094 0 0
26.4094 0 0
26.5063 0 0
26.5063 0 0
26.6033 0 0
26.6033 0 0
26.7002 0 0
26.7002 0 0
26.7971 0 0
26.7971 0 0
26.894 0 0
26.894 0 0
26.991 0 0
26.991 0 0
27.0879 0 0
27.0879 0 0
27.1848 0 0
27.1848 0 0
27.2817 0 0
27.2817 0 0
27.3787 0 0
27.3787 0 0
27.4756 0 0
27.4756 0 0
27.5725 0 0
27.5725 0 0
27.6694 0 0
27.6694 0 0
27.7664 0 0
27.7664 0 0
27.8633 0 0
27.8633 0 0
27.9602 0 0
27.9602 0 0
28.0571 0 0
28.0571 0 0
28.1541 0 0
28.1541 0 0
28.251 0 0
28.251 0 0
28.3479 0 0
28.3479 0 0
28.4448 0 0
28.4448 0 0
28.5417 0 0
28.5417 0 0
28.6387 0 0
28.6387 0 0
28.7356 0 0
28.7356 0 0
28.8325 0 0
28.8325 0 0
28.9294 0 0
28.9294 0 0
29.0264 0 0
29.0264 0 0
29.1233 0 0
29.1233 0 0
29.2202 0 0
29.2202 0 0
29.3171 0 0
29.3171 0 0
29.4141 0 0
29.4141 0 0
29.511 0 0
29.511 0 0
29.6079 0 0
29.6079 0 0
29.7048 0 0
29.7048 0 0
29.8018 0 0
29.8018 0 0
29.8987 0 0
29.8987 0 0
29.9956 0 0
29.9956 0 0
30.0925 0 0
30.0925 0 0
30.1895 0 0
30.1895 0 0
30.2864 0 0
30.2864 0 0
30.3833 0 0
30.3833 0 0
30.4802 0 0
30.4802 0 0
30.5771 0 0
30.5771 0 0
30.6741 0 0
30.6741 0 0
30.771 0 0
30.771 0 0
30.8679 0 0
30.8679 0 0
30.9648 0 0
30.9648 0 0
31.0618 0 0
31.0618 0 0
31.1587 0 0
31.1587 0 0
31.2556 0 0
31.2556 0 0
31.3525 0 0
31.3525 0 0
31.4495 0 0
31.4495 0 0
31.5464 0 0
31.5464 0 0
31.6433 0 0
31.6433 0 0
31.7402 0 0
31.7402 0 0
31.8372 0 0
31.8372 0 0
31.9341 0 0
31.9341 0 0
32.031 0 0
32.031 0 0
32.1279 0 0
32.1279 0 0
32.2249 0 0
32.2249 0 0
32.3218 0 0
32.3218 0 0
32.4187 0 0
32.4187 0 0
32.5156 0 0
32.5156 0 0
32.6125 0 0
32.6125 0 0
32.7095 0 0
32.7095 0 0
32.8064 0 0
32.8064 0 0
32.9033 0 0
32.9033 0 0
33.0002 0 0
33.0002 0 0
33.0972 0 0
33.0972 0 0
33.1941 0 0
33.1941 0 0
33.291 0 0
33.291 0 0
33.3879 0 0
33.3879 0 0
33.4849 0 0
33.4849 0 0
33.5818 0 0
33.5818 0 0
33.6787 0 0
33.6787 0 0
33.7756 0 0
33.7756 0 0
33.8726 0 0
33.8726 0 0
33.9695 0 0
33.9695 0 0
34.0664 0 0
34.0664 0 0
34.1633 0 0
34.1633 0 0
34.2603 0 0
34.2603 0 0
34.3572 0 0
34.3572 0 0
34.4541 0 0
34.4541 0 0
34.551 0 0
34.551 0 0
34.6479 0 0
34.6479 0 0
34.7449 0 0
34.7449 0 0
34.8418 0 0
34.8418 0 0
34.9387 0 0
34.9387 0 0
35.0356 0 0
35.0356 0 0
35.1326 0 0
35.1326 0 0
35.2295 0 0
35.2295 0 0
35.3264 0 0
35.3264 0 0
35.4233 0 0
35.4233 0 0
35.5203 0 0
35.5203 0 0
35.6172 0 0
35.6172 0 0
35.7141 0 0
35.7141 0 0
35.811 0 0
35.811 0 0
35.908 0 0
35.908 0 0
36.0049 0 0
36.0049 0 0
36.1018 0 0
36.1018 0 0
36.1987 0 0
36.1987 0 0
36.2957 0 0
36.2957 0 0
36.3926 0 0
36.3926 0 0
36.4895 0 0
36.4895 0 0
36.5864 0 0
36.5864 0 0
36.6833 0 0
36.6833 0 0
36.7803 0 0
36.7803 0 0
36.8772 0 0
36.8772 0 0
36.9741 0 0
36.9741 0 0
37.071 0 0
37.071 0 0
37.168 0 0
37.168 0 0
37.2649 0 0
37.2649 0 0
37.3618 0 0
37.3618 0 0
37.4587 0 0
37.4587 0 0
37.5557 0 0
37.5557 0 0
37.6526 0 0
37.6526 0 0
37.7495 0 0
37.7495 0 0
37.8464 0 0
37.8464 0 0
37.9434 0 0
37.9434 0 0
38.0403 0 0
38.0403 0 0
38.1372 0 0
38.1372 0 0
38.2341 0 0
38.2341 0 0
38.3311 0 0
38.3311 0 0
38.428 0 0
38.428 0 0
38.5249 0 0
38.5249 0 0
38.6218 0 0
38.6218 0 0
38.7188 0 0
38.7188 0 0
38.8157 0 0
38.8157 0 0
38.9126 0 0
38.9126 0 0
39.0095 0 0
39.0095 0 0
39.1064 0 0
39.1064 0 0
39.2034 0 0
39.2034 0 0
39.3003 0 0
39.3003 0 0
39.3972 0 0
39.3972 0 0
39.4941 0 0
39.4941 0 0
39.5911 0 0
39.5911 0 0
39.688 0 0
39.688 0 0
39.7849 0 0
39.7849 0 0
39.8818 0 0
39.8818 0 0
39.9788 0 0
39.9788 0 0
40.0757 0 0
40.0757 0 0
40.1726 0 0
40.1726 0 0
40.2695 0 0
40.2695 0 0
40.3665 0 0
40.3665 0 0
40.4634 0 0
40.4634 0 0
40.5603 0 0
40.5603 0 0
40.6572 0 0
40.6572 0 0
40.7542 0 0
40.7542 0 0
40.8511 0 0
40.8511 0 0
40.948 0 0
40.948 0 0
41.0449 0 0
41.0449 0 0
41.1418 0 0
41.1418 0 0
41.2388 0 0
41.2388 0 0
41.3357 0 0
41.3357 0 0
41.4326 0 0
41.4326 0 0
41.5295 0 0
41.5295 0 0
[...]
POINT_DATA 4096
SCALARS solution_0 double 1
LOOKUP_TABLE default
18.4078 18.0167 18.0167 17.684 17.684 17.3978 17.3978 17.1494 17.1494 16.9317 16.9317 16.7394 16.7394 16.568 16.568 16.4139 16.4139 16.2745 16.2745 16.1473 16.1473 16.0304 16.0304 15.9222 15.9222 15.8215 15.8215 15.727 15.727 15.6379 15.6379 15.5533 15.5533 15.4727 15.4727 15.3954 15.3954 15.3209 15.3209 15.2488 15.2488 15.1788 15.1788 15.1106 15.1106 15.0438 15.0438 14.9783 14.9783 14.9138 14.9138 14.8502 14.8502 14.7873 14.7873 14.7251 14.7251 14.6633 14.6633 14.6019 14.6019 14.5408 14.5408 14.48 14.48 14.4193 14.4193 14.3588 14.3588 14.2984 14.2984 14.238 14.238 14.1776 14.1776 14.1172 14.1172 14.0568 14.0568 13.9963 13.9963 13.9358 13.9358 13.8753 13.8753 13.8147 13.8147 13.754 13.754 13.6932 13.6932 13.6324 13.6324 13.5715 13.5715 13.5106 13.5106 13.4496 13.4496 13.3885 13.3885 13.3273 13.3273 13.266 13.266 13.2047 13.2047 13.1432 13.1432 13.0816 13.0816 13.0199 13.0199 12.9579 12.9579 12.8958 12.8958 12.8335 12.8335 12.771 12.771 12.7082 12.7082 12.6451 12.6451 12.5817 12.5817 12.518 12.518 12.454 12.454 12.3896 12.3896 12.3249 12.3249 12.2598 12.2598 12.1944 12.1944 12.1286 12.1286 12.0625 12.0625 11.996 11.996 11.9293 11.9293 11.8623 11.8623 11.7951 11.7951 11.7277 11.7277 11.6601 11.6601 11.5924 11.5924 11.5246 11.5246 11.4568 11.4568 11.389 11.389 11.3213 11.3213 11.2537 11.2537 11.1862 11.1862 11.1189 11.1189 11.0519 11.0519 10.9851 10.9851 10.9187 10.9187 10.8525 10.8525 10.7866 10.7866 10.7209 10.7209 10.6552 10.6552 10.5893 10.5893 10.5229 10.5229 10.4552 10.4552 10.3855 10.3855 10.3127 10.3127 10.2353 10.2353 10.1518 10.1518 10.06 10.06 9.95806 9.95806 9.84394 9.84394 9.71612 9.71612 9.57376 9.57376 9.41713 9.41713 9.24787 9.24787 9.06913 9.06913 8.88561 8.88561 8.70317 8.70317 8.52828 8.52828 8.36727 8.36727 8.22545 8.22545 8.10634 8.10634 8.0112 8.0112 7.93898 7.93898 7.8867 7.8867 7.85025 7.85025 7.82545 7.82545 7.80901 7.80901 7.79921 7.79921 7.79615 7.79615 7.80149 7.80149 7.81785 7.81785 7.84809 7.84809 7.89466 7.89466 7.95929 7.95929 8.04293 8.04293 8.14597 8.14597 8.26853 8.26853 8.41067 8.41067 8.57242 8.57242 8.75365 8.75365 8.95391 8.95391 9.17219 9.17219 9.4069 9.4069 9.65579 9.65579 9.91609 9.91609 10.1845 10.1845 10.4574 10.4574 10.7306 10.7306 10.9996 10.9996 11.2599 11.2599 11.5064 11.5064 11.7342 11.7342 11.9384 11.9384 12.1146 12.1146 12.2585 12.2585 12.3664 12.3664 12.4354 12.4354 12.4631 12.4631 12.4481 12.4481 12.39 12.39 12.2889 12.2889 12.1463 12.1463 11.9643 11.9643 11.7458 11.7458 11.4945 11.4945 11.2145 11.2145 10.9107 10.9107 10.5879 10.5879 10.2512 10.2512 9.9059 9.9059 9.55682 9.55682 9.20868 9.20868 8.86578 8.86578 8.53194 8.53194 8.21042 8.21042 7.90392 7.90392 7.61453 7.61453 7.34373 7.34373 7.09247 7.09247 6.86112 6.86112 6.64965 6.64965 6.45756 6.45756 6.28407 6.28407 6.12812 6.12812 5.98845 5.98845 5.86369 5.86369 5.75239 5.75239 5.65312 5.65312 5.56443 5.56443 5.48498 5.48498 5.41349 5.41349 5.34879 5.34879 5.28983 5.28983 5.23568 5.23568 5.18554 5.18554 5.1387 5.1387 5.09457 5.09457 5.05266 5.05266 5.01255 5.01255 4.97392 4.97392 4.93649 4.93649 4.90006 4.90006 4.86444 4.86444 4.82952 4.82952 4.79518 4.79518 4.76135 4.76135 4.72798 4.72798 4.69501 4.69501 4.66241 4.66241 4.63015 4.63015 4.59823 4.59823 4.56661 4.56661 4.5353 4.5353 4.50428 4.50428 4.47355 4.47355 4.4431 4.4431 4.41292 4.41292 4.38302 4.38302 4.35338 4.35338 4.32401 4.32401 4.2949 4.2949 4.26605 4.26605 4.23745 4.23745 4.2091 4.2091 4.18101 4.18101 4.15316 4.15316 4.12555 4.12555 4.09818 4.09818 4.07105 4.07105 4.04416 4.04416 4.0175 4.0175 3.99107 3.99107 3.96487 3.96487 3.93889 3.93889 3.91313 3.91313 3.8876 3.8876 3.86228 3.86228 3.83718 3.83718 3.81229 3.81229 3.78761 3.78761 3.76313 3.76313 3.73887 3.73887 3.7148 3.7148 3.69094 3.69094 3.66728 3.66728 3.64382 3.64382 3.62054 3.62054 3.59747 3.59747 3.57458 3.57458 3.55188 3.55188 3.52937 3.52937 3.50704 3.50704 3.48489 3.48489 3.46293 3.46293 3.44114 3.44114 3.41953 3.41953 3.39809 3.39809 3.37683 3.37683 3.35574 3.35574 3.33481 3.33481 3.31406 3.31406 3.29347 3.29347 3.27304 3.27304 3.25278 3.25278 3.23268 3.23268 3.21273 3.21273 3.19294 3.19294 3.17331 3.17331 3.15383 3.15383 3.13451 3.13451 3.11533 3.11533 3.0963 3.0963 3.07743 3.07743 3.05869 3.05869 3.0401 3.0401 3.02166 3.02166 3.00335 3.00335 2.98519 2.98519 2.96717 2.96717 2.94928 2.94928 2.93153 2.93153 2.91391 2.91391 2.89642 2.89642 2.87907 2.87907 2.86185 2.86185 2.84476 2.84476 2.82779 2.82779 2.81095 2.81095 2.79424 2.79424 2.77765 2.77765 2.76119 2.76119 2.74484 2.74484 2.72862 2.72862 2.71252 2.71252 2.69653 2.69653 2.68066 2.68066 2.66491 2.66491 2.64927 2.64927 2.63375 2.63375 2.61833 2.61833 2.60303 2.60303 2.58784 2.58784 2.57276 2.57276 2.55779 2.55779 2.54292 2.54292 2.52816 2.52816 2.51351 2.51351 2.49896 2.49896 2.48451 2.48451 2.47017 2.47017 2.45592 2.45592 2.44178 2.44178 2.42773 2.42773 2.41379 2.41379 2.39994 2.39994 2.38619 2.38619 2.37253 2.37253 2.35897 2.35897 2.34551 2.34551 2.33213 2.33213 2.31885 2.31885 2.30566 2.30566 2.29256 2.29256 2.27955 2.27955 2.26663 2.26663 2.2538 2.2538 2.24105 2.24105 2.22839 2.22839 2.21582 2.21582 2.20333 2.20333 2.19092 2.19092 2.1786 2.1786 2.16636 2.16636 2.15421 2.15421 2.14213 2.14213 2.13014 2.13014 2.11822 2.11822 2.10639 2.10639 2.09463 2.09463 2.08295 2.08295 2.07135 2.07135 2.05982 2.05982 2.04837 2.04837 2.03699 2.03699 2.02569 2.02569 2.01446 2.01446 2.00331 2.00331 1.99222 1.99222 1.98121 1.98121 1.97027 1.97027 1.9594 1.9594 1.9486 1.9486 1.93787 1.93787 1.92721 1.92721 1.91662 1.91662 1.90609 1.90609 1.89564 1.89564 1.88524 1.88524 1.87492 1.87492 1.86466 1.86466 1.85446 1.85446 1.84433 1.84433 1.83426 1.83426 1.82426 1.82426 1.81432 1.81432 1.80444 1.80444 1.79462 1.79462 1.78486 1.78486 1.77516 1.77516 1.76553 1.76553 1.75595 1.75595 1.74643 1.74643 1.73697 1.73697 1.72757 1.72757 1.71823 1.71823 1.70894 1.70894 1.69971 1.69971 1.69054 1.69054 1.68142 1.68142 1.67236 1.67236 1.66336 1.66336 1.6544 1.6544 1.64551 1.64551 1.63666 1.63666 1.62787 1.62787 1.61913 1.61913 1.61045 1.61045 1.60181 1.60181 1.59323 1.59323 1.5847 1.5847 1.57622 1.57622 1.56779 1.56779 1.5594 1.5594 1.55107 1.55107 1.54279 1.54279 1.53456 1.53456 1.52637 1.52637 1.51824 1.51824 1.51015 1.51015 1.50211 1.50211 1.49411 1.49411 1.48616 1.48616 1.47826 1.47826 1.47041 1.47041 1.4626 1.4626 1.45483 1.45483 1.44711 1.44711 1.43943 1.43943 1.4318 1.4318 1.42421 1.42421 1.41667 1.41667 1.40917 1.40917 1.40171 1.40171 1.39429 1.39429 1.38692 1.38692 1.37958 1.37958 1.37229 1.37229 1.36504 1.36504 1.35784 1.35784 1.35067 1.35067 1.34354 1.34354 1.33645 1.33645 1.3294 1.3294 1.3224 1.3224 1.31543 1.31543 1.3085 1.3085 1.3016 1.3016 1.29475 1.29475 1.28794 1.28794 1.28116 1.28116 1.27442 1.27442 1.26771 1.26771 1.26105 1.26105 1.25442 1.25442 1.24782 1.24782 1.24127 1.24127 1.23475 1.23475 1.22826 1.22826 1.22181 1.22181 1.21539 1.21539 1.20901 1.20901 1.20267 1.20267 1.19636 1.19636 1.19008 1.19008 1.18384 1.18384 1.17763 1.17763 1.17145 1.17145 1.16531 1.16531 1.1592 1.1592 1.15312 1.15312 1.14707 1.14707 1.14106 1.14106 1.13508 1.13508 1.12913 1.12913 1.12322 1.12322 1.11733 1.11733 1.11147 1.11147 1.10565 1.10565 1.09986 1.09986 1.09409 1.09409 1.08836 1.08836 1.08266 1.08266 1.07699 1.07699 1.07134 1.07134 1.06573 1.06573 1.06015 1.06015 1.05459 1.05459 1.04907 1.04907 1.04357 1.04357 1.0381 1.0381 1.03266 1.03266 1.02725 1.02725 1.02186 1.02186 1.0165 1.0165 1.01118 1.01118 1.00587 1.00587 1.0006 1.0006 0.995351 0.995351 0.99013 0.99013 0.984936 0.984936 0.979768 0.979768 0.974626 0.974626 0.969511 0.969511 0.964421 0.964421 0.959358 0.959358 0.954319 0.954319 0.949307 0.949307 0.944319 0.944319 0.939357 0.939357 0.934419 0.934419 0.929507 0.929507 0.924619 0.924619 0.919755 0.919755 0.914916 0.914916 0.910101 0.910101 0.90531 0.90531 0.900542 0.900542 0.895799 0.895799 0.891078 0.891078 0.886382 0.886382 0.881708 0.881708 0.877058 0.877058 0.87243 0.87243 0.867825 0.867825 0.863243 0.863243 0.858684 0.858684 0.854146 0.854146 0.849631 0.849631 0.845138 0.845138 0.840667 0.840667 0.836218 0.836218 0.83179 0.83179 0.827384 0.827384 0.823 0.823 0.818636 0.818636 0.814294 0.814294 0.809972 0.809972 0.805672 0.805672 0.801392 0.801392 0.797133 0.797133 0.792894 0.792894 0.788676 0.788676 0.784477 0.784477 0.780299 0.780299 0.776141 0.776141 0.772003 0.772003 0.767884 0.767884 0.763785 0.763785 0.759706 0.759706 0.755646 0.755646 0.751605 0.751605 0.747583 0.747583 0.743581 0.743581 0.739597 0.739597 0.735632 0.735632 0.731685 0.731685 0.727757 0.727757 0.723848 0.723848 0.719957 0.719957 0.716084 0.716084 0.712229 0.712229 0.708393 0.708393 0.704574 0.704574 0.700773 0.700773 0.696989 0.696989 0.693224 0.693224 0.689475 0.689475 0.685744 0.685744 0.682031 0.682031 0.678334 0.678334 0.674655 0.674655 0.670992 0.670992 0.667347 0.667347 0.663718 0.663718 0.660106 0.660106 0.65651 0.65651 0.652931 0.652931 0.649368 0.649368 0.645821 0.645821 0.642291 0.642291 0.638777 0.638777 0.635279 0.635279 0.631796 0.631796 0.62833 0.62833 0.624879 0.624879 0.621444 0.621444 0.618024 0.618024 0.61462 0.61462 0.611231 0.611231 0.607857 0.607857 0.604499 0.604499 0.601156 0.601156 0.597827 0.597827 0.594514 0.594514 0.591215 0.591215 0.587932 0.587932 0.584663 0.584663 0.581408 0.581408 0.578168 0.578168 0.574942 0.574942 0.571731 0.571731 0.568534 0.568534 0.565351 0.565351 0.562183 0.562183 0.559028 0.559028 0.555887 0.555887 0.55276 0.55276 0.549647 0.549647 0.546548 0.546548 0.543462 0.543462 0.54039 0.54039 0.537331 0.537331 0.534285 0.534285 0.531254 0.531254 0.528235 0.528235 0.525229 0.525229 0.522237 0.522237 0.519257 0.519257 0.516291 0.516291 0.513337 0.513337 0.510396 0.510396 0.507469 0.507469 0.504553 0.504553 0.501651 0.501651 0.49876 0.49876 0.495883 0.495883 0.493017 0.493017 0.490165 0.490165 0.487324 0.487324 0.484495 0.484495 0.481679 0.481679 0.478875 0.478875 0.476083 0.476083 0.473302 0.473302 0.470534 0.470534 0.467777 0.467777 0.465033 0.465033 0.4623 0.4623 0.459578 0.459578 0.456868 0.456868 0.45417 0.45417 0.451483 0.451483 0.448807 0.448807 0.446143 0.446143 0.44349 0.44349 0.440848 0.440848 0.438217 0.438217 0.435598 0.435598 0.432989 0.432989 0.430391 0.430391 0.427805 0.427805 0.425229 0.425229 0.422664 0.422664 0.42011 0.42011 0.417566 0.417566 0.415033 0.415033 0.41251 0.41251 0.409998 0.409998 0.407497 0.407497 0.405006 0.405006 0.402525 0.402525 0.400055 0.400055 0.397594 0.397594 0.395144 0.395144 0.392705 0.392705 0.390275 0.390275 0.387855 0.387855 0.385445 0.385445 0.383045 0.383045 0.380655 0.380655 0.378275 0.378275 0.375905 0.375905 0.373544 0.373544 0.371193 0.371193 0.368852 0.368852 0.36652 0.36652 0.364198 0.364198 0.361885 0.361885 0.359582 0.359582 0.357288 0.357288 0.355003 0.355003 0.352728 0.352728 0.350462 0.350462 0.348205 0.348205 0.345957 0.345957 0.343719 0.343719 0.341489 0.341489 0.339268 0.339268 0.337057 0.337057 0.334854 0.334854 0.33266 0.33266 0.330475 0.330475 0.328299 0.328299 0.326132 0.326132 0.323973 0.323973 0.321823 0.321823 0.319681 0.319681 0.317548 0.317548 0.315424 0.315424 0.313308 0.313308 0.311201 0.311201 0.309102 0.309102 0.307011 0.307011 0.304929 0.304929 0.302854 0.302854 0.300789 0.300789 0.298731 0.298731 0.296681 0.296681 0.29464 0.29464 0.292607 0.292607 0.290581 0.290581 0.288564 0.288564 0.286555 0.286555 0.284553 0.284553 0.28256 0.28256 0.280574 0.280574 0.278596 0.278596 0.276626 0.276626 0.274664 0.274664 0.272709 0.272709 0.270762 0.270762 0.268823 0.268823 0.266891 0.266891 0.264966 0.264966 0.26305 0.26305 0.26114 0.26114 0.259239 0.259239 0.257344 0.257344 0.255457 0.255457 0.253577 0.253577 0.251705 0.251705 0.249839 0.249839 0.247981 0.247981 0.246131 0.246131 0.244287 0.244287 0.24245 0.24245 0.240621 0.240621 0.238799 0.238799 0.236983 0.236983 0.235175 0.235175 0.233373 0.233373 0.231579 0.231579 0.229791 0.229791 0.228011 0.228011 0.226237 0.226237 0.22447 0.22447 0.222709 0.222709 0.220956 0.220956 0.219209 0.219209 0.217468 0.217468 0.215735 0.215735 0.214008 0.214008 0.212287 0.212287 0.210573 0.210573 0.208866 0.208866 0.207165 0.207165 0.20547 0.20547 0.203782 0.203782 0.202101 0.202101 0.200425 0.200425 0.198757 0.198757 0.197094 0.197094 0.195438 0.195438 0.193787 0.193787 0.192143 0.192143 0.190506 0.190506 0.188874 0.188874 0.187249 0.187249 0.185629 0.185629 0.184016 0.184016 0.182409 0.182409 0.180808 0.180808 0.179213 0.179213 0.177623 0.177623 0.17604 0.17604 0.174463 0.174463 0.172891 0.172891 0.171326 0.171326 0.169766 0.169766 0.168212 0.168212 0.166664 0.166664 0.165121 0.165121 0.163585 0.163585 0.162054 0.162054 0.160528 0.160528 0.159009 0.159009 0.157495 0.157495 0.155986 0.155986 0.154483 0.154483 0.152986 0.152986 0.151494 0.151494 0.150008 0.150008 0.148527 0.148527 0.147052 0.147052 0.145582 0.145582 0.144117 0.144117 0.142658 0.142658 0.141204 0.141204 0.139756 0.139756 0.138313 0.138313 0.136875 0.136875 0.135442 0.135442 0.134015 0.134015 0.132592 0.132592 0.131175 0.131175 0.129764 0.129764 0.128357 0.128357 0.126955 0.126955 0.125559 0.125559 0.124168 0.124168 0.122781 0.122781 0.1214 0.1214 0.120024 0.120024 0.118653 0.118653 0.117286 0.117286 0.115925 0.115925 0.114569 0.114569 0.113217 0.113217 0.11187 0.11187 0.110529 0.110529 0.109192 0.109192 0.10786 0.10786 0.106532 0.106532 0.10521 0.10521 0.103892 0.103892 0.102579 0.102579 0.101271 0.101271 0.099967 0.099967 0.0986681 0.0986681 0.0973738 0.0973738 0.0960841 0.0960841 0.0947991 0.0947991 0.0935187 0.0935187 0.0922428 0.0922428 0.0909715 0.0909715 0.0897047 0.0897047 0.0884425 0.0884425 0.0871847 0.0871847 0.0859315 0.0859315 0.0846827 0.0846827 0.0834383 0.0834383 0.0821984 0.0821984 0.0809628 0.0809628 0.0797317 0.0797317 0.0785049 0.0785049 0.0772825 0.0772825 0.0760643 0.0760643 0.0748506 0.0748506 0.0736411 0.0736411 0.0724358 0.0724358 0.0712349 0.0712349 0.0700381 0.0700381 0.0688456 0.0688456 0.0676574 0.0676574 0.0664732 0.0664732 0.0652933 0.0652933 0.0641175 0.0641175 0.0629459 0.0629459 0.0617783 0.0617783 0.0606149 0.0606149 0.0594555 0.0594555 0.0583002 0.0583002 0.057149 0.057149 0.0560018 0.0560018 0.0548586 0.0548586 0.0537194 0.0537194 0.0525842 0.0525842 0.051453 0.051453 0.0503257 0.0503257 0.0492023 0.0492023 0.0480829 0.0480829 0.0469673 0.0469673 0.0458557 0.0458557 0.0447479 0.0447479 0.043644 0.043644 0.0425439 0.0425439 0.0414476 0.0414476 0.0403551 0.0403551 0.0392664 0.0392664 0.0381815 0.0381815 0.0371004 0.0371004 0.036023 0.036023 0.0349493 0.0349493 0.0338793 0.0338793 0.0328131 0.0328131 0.0317505 0.0317505 0.0306916 0.0306916 0.0296363 0.0296363 0.0285847 0.0285847 0.0275367 0.0275367 0.0264923 0.0264923 0.0254515 0.0254515 0.0244143 0.0244143 0.0233807 0.0233807 0.0223506 0.0223506 0.021324 0.021324 0.020301 0.020301 0.0192814 0.0192814 0.0182654 0.0182654 0.0172528 0.0172528 0.0162438 0.0162438 0.0152381 0.0152381 0.0142359 0.0142359 0.0132371 0.0132371 0.0122418 0.0122418 0.0112498 0.0112498 0.0102612 0.0102612 0.00927603 0.00927603 0.00829417 0.00829417 0.00731566 0.00731566 0.00634048 0.00634048 0.00536861 0.00536861 0.00440005 0.00440005 0.00343478 0.00343478 0.00247279 0.00247279 0.00151406 0.00151406 0.000558583 0.000558583 -0.000393655 -0.000393655 -0.00134267 -0.00134267 -0.00228846 -0.00228846 -0.00323106 -0.00323106 -0.00417047 -0.00417047 -0.00510671 -0.00510671 -0.00603978 -0.00603978 -0.0069697 -0.0069697 -0.00789648 -0.00789648 -0.00882014 -0.00882014 -0.00974068 -0.00974068 -0.0106581 -0.0106581 -0.0115725 -0.0115725 -0.0124838 -0.0124838 -0.013392 -0.013392 -0.0142971 -0.0142971 -0.0151992 -0.0151992 -0.0160983 -0.0160983 -0.0169944 -0.0169944 -0.0178875 -0.0178875 -0.0187775 -0.0187775 -0.0196646 -0.0196646 -0.0205487 -0.0205487 -0.0214299 -0.0214299 -0.0223081 -0.0223081 -0.0231834 -0.0231834 -0.0240557 -0.0240557 -0.0249251 -0.0249251 -0.0257917 -0.0257917 -0.0266553 -0.0266553 -0.027516 -0.027516 -0.0283739 -0.0283739 -0.029229 -0.029229 -0.0300811 -0.0300811 -0.0309305 -0.0309305 -0.031777 -0.031777 -0.0326207 -0.0326207 -0.0334616 -0.0334616 -0.0342997 -0.0342997 -0.035135 -0.035135 -0.0359676 -0.0359676 -0.0367974 -0.0367974 -0.0376244 -0.0376244 -0.0384487 -0.0384487 -0.0392703 -0.0392703 -0.0400891 -0.0400891 -0.0409053 -0.0409053 -0.0417187 -0.0417187 -0.0425295 -0.0425295 -0.0433376 -0.0433376 -0.044143 -0.044143 -0.0449457 -0.0449457 -0.0457458 -0.0457458 -0.0465433 -0.0465433 -0.0473381 -0.0473381 -0.0481303 -0.0481303 -0.0489199 -0.0489199 -0.0497069 -0.0497069 -0.0504913 -0.0504913 -0.0512732 -0.0512732 -0.0520525 -0.0520525 -0.0528292 -0.0528292 -0.0536033 -0.0536033 -0.054375 -0.054375 -0.055144 -0.055144 -0.0559106 -0.0559106 -0.0566747 -0.0566747 -0.0574362 -0.0574362 -0.0581953 -0.0581953 -0.0589519 -0.0589519 -0.059706 -0.059706 -0.0604576 -0.0604576 -0.0612068 -0.0612068 -0.0619535 -0.0619535 -0.0626978 -0.0626978 -0.0634397 -0.0634397 -0.0641791 -0.0641791 -0.0649161 -0.0649161 -0.0656508 -0.0656508 -0.066383 -0.066383 -0.0671128 -0.0671128 -0.0678403 -0.0678403 -0.0685654 -0.0685654 -0.0692882 -0.0692882 -0.0700086 -0.0700086 -0.0707266 -0.0707266 -0.0714424 -0.0714424 -0.0721558 -0.0721558 -0.0728669 -0.0728669 -0.0735756 -0.0735756 -0.0742821 -0.0742821 -0.0749863 -0.0749863 -0.0756882 -0.0756882 -0.0763879 -0.0763879 -0.0770852 -0.0770852 -0.0777804 -0.0777804 -0.0784732 -0.0784732 -0.0791639 -0.0791639 -0.0798523 -0.0798523 -0.0805384 -0.0805384 -0.0812224 -0.0812224 -0.0819041 -0.0819041 -0.0825837 -0.0825837 -0.0832611 -0.0832611 -0.0839362 -0.0839362 -0.0846092 -0.0846092 -0.0852801 -0.0852801 -0.0859487 -0.0859487 -0.0866153 -0.0866153 -0.0872796 -0.0872796 -0.0879419 -0.0879419 -0.088602 -0.088602 -0.08926 -0.08926 -0.0899158 -0.0899158 -0.0905696 -0.0905696 -0.0912213 -0.0912213 -0.0918709 -0.0918709 -0.0925184 -0.0925184 -0.0931638 -0.0931638 -0.0938071 -0.0938071 -0.0944484 -0.0944484 -0.0950877 -0.0950877 -0.0957248 -0.0957248 -0.09636 -0.09636 -0.0969931 -0.0969931 -0.0976242 -0.0976242 -0.0982533 -0.0982533 -0.0988804 -0.0988804 -0.0995054 -0.0995054 -0.100128 -0.100128 -0.10075 -0.10075 -0.101369 -0.101369 -0.101986 -0.101986 -0.102601 -0.102601 -0.103214 -0.103214 -0.103825 -0.103825 -0.104435 -0.104435 -0.105042 -0.105042 -0.105647 -0.105647 -0.106251 -0.106251 -0.106853 -0.106853 -0.107452 -0.107452 -0.10805 -0.10805 -0.108646 -0.108646 -0.10924 -0.10924 -0.109832 -0.109832 -0.110422 -0.110422 -0.11101 -0.11101 -0.111597 -0.111597 -0.112181 -0.112181 -0.112764 -0.112764 -0.113345 -0.113345 -0.113924 -0.113924 -0.114501 -0.114501 -0.115077 -0.115077 -0.11565 -0.11565 -0.116222 -0.116222 -0.116792 -0.116792 -0.11736 -0.11736 -0.117927 -0.117927 -0.118491 -0.118491 -0.119054 -0.119054 -0.119615 -0.119615 -0.120174 -0.120174 -0.120732 -0.120732 -0.121287 -0.121287 -0.121841 -0.121841 -0.122394 -0.122394 -0.122944 -0.122944 -0.123493 -0.123493 -0.12404 -0.12404 -0.124585 -0.124585 -0.125129 -0.125129 -0.125671 -0.125671 -0.126211 -0.126211 -0.126749 -0.126749 -0.127286 -0.127286 -0.127821 -0.127821 -0.128355 -0.128355 -0.128886 -0.128886 -0.129416 -0.129416 -0.129945 -0.129945 -0.130472 -0.130472 -0.130997 -0.130997 -0.13152 -0.13152 -0.132042 -0.132042 -0.132562 -0.132562 -0.133081 -0.133081 -0.133597 -0.133597 -0.134113 -0.134113 -0.134626 -0.134626 -0.135139 -0.135139 -0.135649 -0.135649 -0.136158 -0.136158 -0.136665 -0.136665 -0.137171 -0.137171 -0.137675 -0.137675 -0.138177 -0.138177 -0.138678 -0.138678 -0.139178 -0.139178 -0.139676 -0.139676 -0.140172 -0.140172 -0.140667 -0.140667 -0.14116 -0.14116 -0.141652 -0.141652 -0.142142 -0.142142 -0.14263 -0.14263 -0.143117 -0.143117 -0.143603 -0.143603 -0.144087 -0.144087 -0.14457 -0.14457 -0.145051 -0.145051 -0.14553 -0.14553 -0.146008 -0.146008 -0.146485 -0.146485 -0.14696 -0.14696 -0.147433 -0.147433 -0.147905 -0.147905 -0.148376 -0.148376 -0.148845 -0.148845 -0.149313 -0.149313 -0.149779 -0.149779 -0.150244 -0.150244 -0.150708 -0.150708 -0.151169 -0.151169 -0.15163 -0.15163 -0.152089 -0.152089 -0.152547 -0.152547 -0.153003 -0.153003 -0.153458 -0.153458 -0.153911 -0.1539