# vtk DataFile Version 3.0
#This file was generated by the deal.II library on 2020/9/6 at 2:59:29
ASCII
DATASET UNSTRUCTURED_GRID

POINTS 4096 double
1.5 0 0
1.59692 0 0
1.59692 0 0
1.69385 0 0
1.69385 0 0
1.79077 0 0
1.79077 0 0
1.8877 0 0
1.8877 0 0
1.98462 0 0
1.98462 0 0
2.08154 0 0
2.08154 0 0
2.17847 0 0
2.17847 0 0
2.27539 0 0
2.27539 0 0
2.37231 0 0
2.37231 0 0
2.46924 0 0
2.46924 0 0
2.56616 0 0
2.56616 0 0
2.66309 0 0
2.66309 0 0
2.76001 0 0
2.76001 0 0
2.85693 0 0
2.85693 0 0
2.95386 0 0
2.95386 0 0
3.05078 0 0
3.05078 0 0
3.14771 0 0
3.14771 0 0
3.24463 0 0
3.24463 0 0
3.34155 0 0
3.34155 0 0
3.43848 0 0
3.43848 0 0
3.5354 0 0
3.5354 0 0
3.63232 0 0
3.63232 0 0
3.72925 0 0
3.72925 0 0
3.82617 0 0
3.82617 0 0
3.9231 0 0
3.9231 0 0
4.02002 0 0
4.02002 0 0
4.11694 0 0
4.11694 0 0
4.21387 0 0
4.21387 0 0
4.31079 0 0
4.31079 0 0
4.40771 0 0
4.40771 0 0
4.50464 0 0
4.50464 0 0
4.60156 0 0
4.60156 0 0
4.69849 0 0
4.69849 0 0
4.79541 0 0
4.79541 0 0
4.89233 0 0
4.89233 0 0
4.98926 0 0
4.98926 0 0
5.08618 0 0
5.08618 0 0
5.18311 0 0
5.18311 0 0
5.28003 0 0
5.28003 0 0
5.37695 0 0
5.37695 0 0
5.47388 0 0
5.47388 0 0
5.5708 0 0
5.5708 0 0
5.66772 0 0
5.66772 0 0
5.76465 0 0
5.76465 0 0
5.86157 0 0
5.86157 0 0
5.9585 0 0
5.9585 0 0
6.05542 0 0
6.05542 0 0
6.15234 0 0
6.15234 0 0
6.24927 0 0
6.24927 0 0
6.34619 0 0
6.34619 0 0
6.44312 0 0
6.44312 0 0
6.54004 0 0
6.54004 0 0
6.63696 0 0
6.63696 0 0
6.73389 0 0
6.73389 0 0
6.83081 0 0
6.83081 0 0
6.92773 0 0
6.92773 0 0
7.02466 0 0
7.02466 0 0
7.12158 0 0
7.12158 0 0
7.21851 0 0
7.21851 0 0
7.31543 0 0
7.31543 0 0
7.41235 0 0
7.41235 0 0
7.50928 0 0
7.50928 0 0
7.6062 0 0
7.6062 0 0
7.70312 0 0
7.70312 0 0
7.80005 0 0
7.80005 0 0
7.89697 0 0
7.89697 0 0
7.9939 0 0
7.9939 0 0
8.09082 0 0
8.09082 0 0
8.18774 0 0
8.18774 0 0
8.28467 0 0
8.28467 0 0
8.38159 0 0
8.38159 0 0
8.47852 0 0
8.47852 0 0
8.57544 0 0
8.57544 0 0
8.67236 0 0
8.67236 0 0
8.76929 0 0
8.76929 0 0
8.86621 0 0
8.86621 0 0
8.96313 0 0
8.96313 0 0
9.06006 0 0
9.06006 0 0
9.15698 0 0
9.15698 0 0
9.25391 0 0
9.25391 0 0
9.35083 0 0
9.35083 0 0
9.44775 0 0
9.44775 0 0
9.54468 0 0
9.54468 0 0
9.6416 0 0
9.6416 0 0
9.73853 0 0
9.73853 0 0
9.83545 0 0
9.83545 0 0
9.93237 0 0
9.93237 0 0
10.0293 0 0
10.0293 0 0
10.1262 0 0
10.1262 0 0
10.2231 0 0
10.2231 0 0
10.3201 0 0
10.3201 0 0
10.417 0 0
10.417 0 0
10.5139 0 0
10.5139 0 0
10.6108 0 0
10.6108 0 0
10.7078 0 0
10.7078 0 0
10.8047 0 0
10.8047 0 0
10.9016 0 0
10.9016 0 0
10.9985 0 0
10.9985 0 0
11.0955 0 0
11.0955 0 0
11.1924 0 0
11.1924 0 0
11.2893 0 0
11.2893 0 0
11.3862 0 0
11.3862 0 0
11.4832 0 0
11.4832 0 0
11.5801 0 0
11.5801 0 0
11.677 0 0
11.677 0 0
11.7739 0 0
11.7739 0 0
11.8708 0 0
11.8708 0 0
11.9678 0 0
11.9678 0 0
12.0647 0 0
12.0647 0 0
12.1616 0 0
12.1616 0 0
12.2585 0 0
12.2585 0 0
12.3555 0 0
12.3555 0 0
12.4524 0 0
12.4524 0 0
12.5493 0 0
12.5493 0 0
12.6462 0 0
12.6462 0 0
12.7432 0 0
12.7432 0 0
12.8401 0 0
12.8401 0 0
12.937 0 0
12.937 0 0
13.0339 0 0
13.0339 0 0
13.1309 0 0
13.1309 0 0
13.2278 0 0
13.2278 0 0
13.3247 0 0
13.3247 0 0
13.4216 0 0
13.4216 0 0
13.5186 0 0
13.5186 0 0
13.6155 0 0
13.6155 0 0
13.7124 0 0
13.7124 0 0
13.8093 0 0
13.8093 0 0
13.9062 0 0
13.9062 0 0
14.0032 0 0
14.0032 0 0
14.1001 0 0
14.1001 0 0
14.197 0 0
14.197 0 0
14.2939 0 0
14.2939 0 0
14.3909 0 0
14.3909 0 0
14.4878 0 0
14.4878 0 0
14.5847 0 0
14.5847 0 0
14.6816 0 0
14.6816 0 0
14.7786 0 0
14.7786 0 0
14.8755 0 0
14.8755 0 0
14.9724 0 0
14.9724 0 0
15.0693 0 0
15.0693 0 0
15.1663 0 0
15.1663 0 0
15.2632 0 0
15.2632 0 0
15.3601 0 0
15.3601 0 0
15.457 0 0
15.457 0 0
15.554 0 0
15.554 0 0
15.6509 0 0
15.6509 0 0
15.7478 0 0
15.7478 0 0
15.8447 0 0
15.8447 0 0
15.9417 0 0
15.9417 0 0
16.0386 0 0
16.0386 0 0
16.1355 0 0
16.1355 0 0
16.2324 0 0
16.2324 0 0
16.3293 0 0
16.3293 0 0
16.4263 0 0
16.4263 0 0
16.5232 0 0
16.5232 0 0
16.6201 0 0
16.6201 0 0
16.717 0 0
16.717 0 0
16.814 0 0
16.814 0 0
16.9109 0 0
16.9109 0 0
17.0078 0 0
17.0078 0 0
17.1047 0 0
17.1047 0 0
17.2017 0 0
17.2017 0 0
17.2986 0 0
17.2986 0 0
17.3955 0 0
17.3955 0 0
17.4924 0 0
17.4924 0 0
17.5894 0 0
17.5894 0 0
17.6863 0 0
17.6863 0 0
17.7832 0 0
17.7832 0 0
17.8801 0 0
17.8801 0 0
17.9771 0 0
17.9771 0 0
18.074 0 0
18.074 0 0
18.1709 0 0
18.1709 0 0
18.2678 0 0
18.2678 0 0
18.3647 0 0
18.3647 0 0
18.4617 0 0
18.4617 0 0
18.5586 0 0
18.5586 0 0
18.6555 0 0
18.6555 0 0
18.7524 0 0
18.7524 0 0
18.8494 0 0
18.8494 0 0
18.9463 0 0
18.9463 0 0
19.0432 0 0
19.0432 0 0
19.1401 0 0
19.1401 0 0
19.2371 0 0
19.2371 0 0
19.334 0 0
19.334 0 0
19.4309 0 0
19.4309 0 0
19.5278 0 0
19.5278 0 0
19.6248 0 0
19.6248 0 0
19.7217 0 0
19.7217 0 0
19.8186 0 0
19.8186 0 0
19.9155 0 0
19.9155 0 0
20.0125 0 0
20.0125 0 0
20.1094 0 0
20.1094 0 0
20.2063 0 0
20.2063 0 0
20.3032 0 0
20.3032 0 0
20.4001 0 0
20.4001 0 0
20.4971 0 0
20.4971 0 0
20.594 0 0
20.594 0 0
20.6909 0 0
20.6909 0 0
20.7878 0 0
20.7878 0 0
20.8848 0 0
20.8848 0 0
20.9817 0 0
20.9817 0 0
21.0786 0 0
21.0786 0 0
21.1755 0 0
21.1755 0 0
21.2725 0 0
21.2725 0 0
21.3694 0 0
21.3694 0 0
21.4663 0 0
21.4663 0 0
21.5632 0 0
21.5632 0 0
21.6602 0 0
21.6602 0 0
21.7571 0 0
21.7571 0 0
21.854 0 0
21.854 0 0
21.9509 0 0
21.9509 0 0
22.0479 0 0
22.0479 0 0
22.1448 0 0
22.1448 0 0
22.2417 0 0
22.2417 0 0
22.3386 0 0
22.3386 0 0
22.4355 0 0
22.4355 0 0
22.5325 0 0
22.5325 0 0
22.6294 0 0
22.6294 0 0
22.7263 0 0
22.7263 0 0
22.8232 0 0
22.8232 0 0
22.9202 0 0
22.9202 0 0
23.0171 0 0
23.0171 0 0
23.114 0 0
23.114 0 0
23.2109 0 0
23.2109 0 0
23.3079 0 0
23.3079 0 0
23.4048 0 0
23.4048 0 0
23.5017 0 0
23.5017 0 0
23.5986 0 0
23.5986 0 0
23.6956 0 0
23.6956 0 0
23.7925 0 0
23.7925 0 0
23.8894 0 0
23.8894 0 0
23.9863 0 0
23.9863 0 0
24.0833 0 0
24.0833 0 0
24.1802 0 0
24.1802 0 0
24.2771 0 0
24.2771 0 0
24.374 0 0
24.374 0 0
24.4709 0 0
24.4709 0 0
24.5679 0 0
24.5679 0 0
24.6648 0 0
24.6648 0 0
24.7617 0 0
24.7617 0 0
24.8586 0 0
24.8586 0 0
24.9556 0 0
24.9556 0 0
25.0525 0 0
25.0525 0 0
25.1494 0 0
25.1494 0 0
25.2463 0 0
25.2463 0 0
25.3433 0 0
25.3433 0 0
25.4402 0 0
25.4402 0 0
25.5371 0 0
25.5371 0 0
25.634 0 0
25.634 0 0
25.731 0 0
25.731 0 0
25.8279 0 0
25.8279 0 0
25.9248 0 0
25.9248 0 0
26.0217 0 0
26.0217 0 0
26.1187 0 0
26.1187 0 0
26.2156 0 0
26.2156 0 0
26.3125 0 0
26.3125 0 0
26.4094 0 0
26.4094 0 0
26.5063 0 0
26.5063 0 0
26.6033 0 0
26.6033 0 0
26.7002 0 0
26.7002 0 0
26.7971 0 0
26.7971 0 0
26.894 0 0
26.894 0 0
26.991 0 0
26.991 0 0
27.0879 0 0
27.0879 0 0
27.1848 0 0
27.1848 0 0
27.2817 0 0
27.2817 0 0
27.3787 0 0
27.3787 0 0
27.4756 0 0
27.4756 0 0
27.5725 0 0
27.5725 0 0
27.6694 0 0
27.6694 0 0
27.7664 0 0
27.7664 0 0
27.8633 0 0
27.8633 0 0
27.9602 0 0
27.9602 0 0
28.0571 0 0
28.0571 0 0
28.1541 0 0
28.1541 0 0
28.251 0 0
28.251 0 0
28.3479 0 0
28.3479 0 0
28.4448 0 0
28.4448 0 0
28.5417 0 0
28.5417 0 0
28.6387 0 0
28.6387 0 0
28.7356 0 0
28.7356 0 0
28.8325 0 0
28.8325 0 0
28.9294 0 0
28.9294 0 0
29.0264 0 0
29.0264 0 0
29.1233 0 0
29.1233 0 0
29.2202 0 0
29.2202 0 0
29.3171 0 0
29.3171 0 0
29.4141 0 0
29.4141 0 0
29.511 0 0
29.511 0 0
29.6079 0 0
29.6079 0 0
29.7048 0 0
29.7048 0 0
29.8018 0 0
29.8018 0 0
29.8987 0 0
29.8987 0 0
29.9956 0 0
29.9956 0 0
30.0925 0 0
30.0925 0 0
30.1895 0 0
30.1895 0 0
30.2864 0 0
30.2864 0 0
30.3833 0 0
30.3833 0 0
30.4802 0 0
30.4802 0 0
30.5771 0 0
30.5771 0 0
30.6741 0 0
30.6741 0 0
30.771 0 0
30.771 0 0
30.8679 0 0
30.8679 0 0
30.9648 0 0
30.9648 0 0
31.0618 0 0
31.0618 0 0
31.1587 0 0
31.1587 0 0
31.2556 0 0
31.2556 0 0
31.3525 0 0
31.3525 0 0
31.4495 0 0
31.4495 0 0
31.5464 0 0
31.5464 0 0
31.6433 0 0
31.6433 0 0
31.7402 0 0
31.7402 0 0
31.8372 0 0
31.8372 0 0
31.9341 0 0
31.9341 0 0
32.031 0 0
32.031 0 0
32.1279 0 0
32.1279 0 0
32.2249 0 0
32.2249 0 0
32.3218 0 0
32.3218 0 0
32.4187 0 0
32.4187 0 0
32.5156 0 0
32.5156 0 0
32.6125 0 0
32.6125 0 0
32.7095 0 0
32.7095 0 0
32.8064 0 0
32.8064 0 0
32.9033 0 0
32.9033 0 0
33.0002 0 0
33.0002 0 0
33.0972 0 0
33.0972 0 0
33.1941 0 0
33.1941 0 0
33.291 0 0
33.291 0 0
33.3879 0 0
33.3879 0 0
33.4849 0 0
33.4849 0 0
33.5818 0 0
33.5818 0 0
33.6787 0 0
33.6787 0 0
33.7756 0 0
33.7756 0 0
33.8726 0 0
33.8726 0 0
33.9695 0 0
33.9695 0 0
34.0664 0 0
34.0664 0 0
34.1633 0 0
34.1633 0 0
34.2603 0 0
34.2603 0 0
34.3572 0 0
34.3572 0 0
34.4541 0 0
34.4541 0 0
34.551 0 0
34.551 0 0
34.6479 0 0
34.6479 0 0
34.7449 0 0
34.7449 0 0
34.8418 0 0
34.8418 0 0
34.9387 0 0
34.9387 0 0
35.0356 0 0
35.0356 0 0
35.1326 0 0
35.1326 0 0
35.2295 0 0
35.2295 0 0
35.3264 0 0
35.3264 0 0
35.4233 0 0
35.4233 0 0
35.5203 0 0
35.5203 0 0
35.6172 0 0
35.6172 0 0
35.7141 0 0
35.7141 0 0
35.811 0 0
35.811 0 0
35.908 0 0
35.908 0 0
36.0049 0 0
36.0049 0 0
36.1018 0 0
36.1018 0 0
36.1987 0 0
36.1987 0 0
36.2957 0 0
36.2957 0 0
36.3926 0 0
36.3926 0 0
36.4895 0 0
36.4895 0 0
36.5864 0 0
36.5864 0 0
36.6833 0 0
36.6833 0 0
36.7803 0 0
36.7803 0 0
36.8772 0 0
36.8772 0 0
36.9741 0 0
36.9741 0 0
37.071 0 0
37.071 0 0
37.168 0 0
37.168 0 0
37.2649 0 0
37.2649 0 0
37.3618 0 0
37.3618 0 0
37.4587 0 0
37.4587 0 0
37.5557 0 0
37.5557 0 0
37.6526 0 0
37.6526 0 0
37.7495 0 0
37.7495 0 0
37.8464 0 0
37.8464 0 0
37.9434 0 0
37.9434 0 0
38.0403 0 0
38.0403 0 0
38.1372 0 0
38.1372 0 0
38.2341 0 0
38.2341 0 0
38.3311 0 0
38.3311 0 0
38.428 0 0
38.428 0 0
38.5249 0 0
38.5249 0 0
38.6218 0 0
38.6218 0 0
38.7188 0 0
38.7188 0 0
38.8157 0 0
38.8157 0 0
38.9126 0 0
38.9126 0 0
39.0095 0 0
39.0095 0 0
39.1064 0 0
39.1064 0 0
39.2034 0 0
39.2034 0 0
39.3003 0 0
39.3003 0 0
39.3972 0 0
39.3972 0 0
39.4941 0 0
39.4941 0 0
39.5911 0 0
39.5911 0 0
39.688 0 0
39.688 0 0
39.7849 0 0
39.7849 0 0
39.8818 0 0
39.8818 0 0
39.9788 0 0
39.9788 0 0
40.0757 0 0
40.0757 0 0
40.1726 0 0
40.1726 0 0
40.2695 0 0
40.2695 0 0
40.3665 0 0
40.3665 0 0
40.4634 0 0
40.4634 0 0
40.5603 0 0
40.5603 0 0
40.6572 0 0
40.6572 0 0
40.7542 0 0
40.7542 0 0
40.8511 0 0
40.8511 0 0
40.948 0 0
40.948 0 0
41.0449 0 0
41.0449 0 0
41.1418 0 0
41.1418 0 0
41.2388 0 0
41.2388 0 0
41.3357 0 0
41.3357 0 0
41.4326 0 0
41.4326 0 0
41.5295 0 0
41.5295 0 0
[...]
POINT_DATA 4096
SCALARS solution_0 double 1
LOOKUP_TABLE default
5.2191e+07 5.11096e+07 5.11096e+07 5.01979e+07 5.01979e+07 4.94213e+07 4.94213e+07 4.87536e+07 4.87536e+07 4.81743e+07 4.81743e+07 4.76673e+07 4.76673e+07 4.72197e+07 4.72197e+07 4.68215e+07 4.68215e+07 4.64643e+07 4.64643e+07 4.61413e+07 4.61413e+07 4.5847e+07 4.5847e+07 4.55769e+07 4.55769e+07 4.53271e+07 4.53271e+07 4.50945e+07 4.50945e+07 4.48764e+07 4.48764e+07 4.46705e+07 4.46705e+07 4.44749e+07 4.44749e+07 4.42881e+07 4.42881e+07 4.41086e+07 4.41086e+07 4.39353e+07 4.39353e+07 4.37672e+07 4.37672e+07 4.36034e+07 4.36034e+07 4.34431e+07 4.34431e+07 4.32858e+07 4.32858e+07 4.31309e+07 4.31309e+07 4.29778e+07 4.29778e+07 4.28263e+07 4.28263e+07 4.26759e+07 4.26759e+07 4.25263e+07 4.25263e+07 4.23774e+07 4.23774e+07 4.22288e+07 4.22288e+07 4.20804e+07 4.20804e+07 4.1932e+07 4.1932e+07 4.17834e+07 4.17834e+07 4.16347e+07 4.16347e+07 4.14856e+07 4.14856e+07 4.13361e+07 4.13361e+07 4.1186e+07 4.1186e+07 4.10355e+07 4.10355e+07 4.08843e+07 4.08843e+07 4.07326e+07 4.07326e+07 4.05802e+07 4.05802e+07 4.04271e+07 4.04271e+07 4.02733e+07 4.02733e+07 4.01189e+07 4.01189e+07 3.99638e+07 3.99638e+07 3.98079e+07 3.98079e+07 3.96515e+07 3.96515e+07 3.94943e+07 3.94943e+07 3.93365e+07 3.93365e+07 3.9178e+07 3.9178e+07 3.90189e+07 3.90189e+07 3.88593e+07 3.88593e+07 3.8699e+07 3.8699e+07 3.85382e+07 3.85382e+07 3.83768e+07 3.83768e+07 3.82149e+07 3.82149e+07 3.80526e+07 3.80526e+07 3.78897e+07 3.78897e+07 3.77265e+07 3.77265e+07 3.75628e+07 3.75628e+07 3.73987e+07 3.73987e+07 3.72343e+07 3.72343e+07 3.70695e+07 3.70695e+07 3.69045e+07 3.69045e+07 3.67391e+07 3.67391e+07 3.65735e+07 3.65735e+07 3.64077e+07 3.64077e+07 3.62417e+07 3.62417e+07 3.60755e+07 3.60755e+07 3.59092e+07 3.59092e+07 3.57427e+07 3.57427e+07 3.55761e+07 3.55761e+07 3.54094e+07 3.54094e+07 3.52427e+07 3.52427e+07 3.5076e+07 3.5076e+07 3.49093e+07 3.49093e+07 3.47425e+07 3.47425e+07 3.45758e+07 3.45758e+07 3.44092e+07 3.44092e+07 3.42426e+07 3.42426e+07 3.40762e+07 3.40762e+07 3.39099e+07 3.39099e+07 3.37437e+07 3.37437e+07 3.35776e+07 3.35776e+07 3.34118e+07 3.34118e+07 3.32461e+07 3.32461e+07 3.30807e+07 3.30807e+07 3.29154e+07 3.29154e+07 3.27505e+07 3.27505e+07 3.25858e+07 3.25858e+07 3.24214e+07 3.24214e+07 3.22572e+07 3.22572e+07 3.20934e+07 3.20934e+07 3.19299e+07 3.19299e+07 3.17668e+07 3.17668e+07 3.1604e+07 3.1604e+07 3.14415e+07 3.14415e+07 3.12795e+07 3.12795e+07 3.11178e+07 3.11178e+07 3.09566e+07 3.09566e+07 3.07957e+07 3.07957e+07 3.06353e+07 3.06353e+07 3.04753e+07 3.04753e+07 3.03158e+07 3.03158e+07 3.01568e+07 3.01568e+07 2.99982e+07 2.99982e+07 2.984e+07 2.984e+07 2.96824e+07 2.96824e+07 2.95253e+07 2.95253e+07 2.93687e+07 2.93687e+07 2.92126e+07 2.92126e+07 2.9057e+07 2.9057e+07 2.89019e+07 2.89019e+07 2.87474e+07 2.87474e+07 2.85934e+07 2.85934e+07 2.844e+07 2.844e+07 2.82871e+07 2.82871e+07 2.81348e+07 2.81348e+07 2.79831e+07 2.79831e+07 2.78319e+07 2.78319e+07 2.76814e+07 2.76814e+07 2.75314e+07 2.75314e+07 2.7382e+07 2.7382e+07 2.72332e+07 2.72332e+07 2.7085e+07 2.7085e+07 2.69374e+07 2.69374e+07 2.67904e+07 2.67904e+07 2.6644e+07 2.6644e+07 2.64983e+07 2.64983e+07 2.63532e+07 2.63532e+07 2.62087e+07 2.62087e+07 2.60648e+07 2.60648e+07 2.59215e+07 2.59215e+07 2.57789e+07 2.57789e+07 2.56369e+07 2.56369e+07 2.54956e+07 2.54956e+07 2.53549e+07 2.53549e+07 2.52148e+07 2.52148e+07 2.50754e+07 2.50754e+07 2.49367e+07 2.49367e+07 2.47985e+07 2.47985e+07 2.46611e+07 2.46611e+07 2.45242e+07 2.45242e+07 2.43881e+07 2.43881e+07 2.42526e+07 2.42526e+07 2.41177e+07 2.41177e+07 2.39835e+07 2.39835e+07 2.38499e+07 2.38499e+07 2.3717e+07 2.3717e+07 2.35848e+07 2.35848e+07 2.34532e+07 2.34532e+07 2.33223e+07 2.33223e+07 2.3192e+07 2.3192e+07 2.30624e+07 2.30624e+07 2.29334e+07 2.29334e+07 2.28051e+07 2.28051e+07 2.26775e+07 2.26775e+07 2.25505e+07 2.25505e+07 2.24241e+07 2.24241e+07 2.22985e+07 2.22985e+07 2.21734e+07 2.21734e+07 2.20491e+07 2.20491e+07 2.19253e+07 2.19253e+07 2.18023e+07 2.18023e+07 2.16799e+07 2.16799e+07 2.15581e+07 2.15581e+07 2.1437e+07 2.1437e+07 2.13165e+07 2.13165e+07 2.11967e+07 2.11967e+07 2.10775e+07 2.10775e+07 2.09589e+07 2.09589e+07 2.0841e+07 2.0841e+07 2.07238e+07 2.07238e+07 2.06072e+07 2.06072e+07 2.04912e+07 2.04912e+07 2.03758e+07 2.03758e+07 2.02611e+07 2.02611e+07 2.0147e+07 2.0147e+07 2.00336e+07 2.00336e+07 1.99208e+07 1.99208e+07 1.98086e+07 1.98086e+07 1.9697e+07 1.9697e+07 1.95861e+07 1.95861e+07 1.94757e+07 1.94757e+07 1.9366e+07 1.9366e+07 1.92569e+07 1.92569e+07 1.91485e+07 1.91485e+07 1.90406e+07 1.90406e+07 1.89333e+07 1.89333e+07 1.88267e+07 1.88267e+07 1.87206e+07 1.87206e+07 1.86152e+07 1.86152e+07 1.85104e+07 1.85104e+07 1.84061e+07 1.84061e+07 1.83025e+07 1.83025e+07 1.81994e+07 1.81994e+07 1.8097e+07 1.8097e+07 1.79951e+07 1.79951e+07 1.78938e+07 1.78938e+07 1.77931e+07 1.77931e+07 1.7693e+07 1.7693e+07 1.75935e+07 1.75935e+07 1.74945e+07 1.74945e+07 1.73961e+07 1.73961e+07 1.72983e+07 1.72983e+07 1.7201e+07 1.7201e+07 1.71044e+07 1.71044e+07 1.70082e+07 1.70082e+07 1.69127e+07 1.69127e+07 1.68177e+07 1.68177e+07 1.67232e+07 1.67232e+07 1.66294e+07 1.66294e+07 1.6536e+07 1.6536e+07 1.64432e+07 1.64432e+07 1.6351e+07 1.6351e+07 1.62593e+07 1.62593e+07 1.61681e+07 1.61681e+07 1.60775e+07 1.60775e+07 1.59874e+07 1.59874e+07 1.58978e+07 1.58978e+07 1.58088e+07 1.58088e+07 1.57203e+07 1.57203e+07 1.56323e+07 1.56323e+07 1.55448e+07 1.55448e+07 1.54579e+07 1.54579e+07 1.53714e+07 1.53714e+07 1.52855e+07 1.52855e+07 1.52001e+07 1.52001e+07 1.51152e+07 1.51152e+07 1.50308e+07 1.50308e+07 1.49469e+07 1.49469e+07 1.48635e+07 1.48635e+07 1.47806e+07 1.47806e+07 1.46982e+07 1.46982e+07 1.46163e+07 1.46163e+07 1.45348e+07 1.45348e+07 1.44539e+07 1.44539e+07 1.43734e+07 1.43734e+07 1.42935e+07 1.42935e+07 1.4214e+07 1.4214e+07 1.41349e+07 1.41349e+07 1.40564e+07 1.40564e+07 1.39783e+07 1.39783e+07 1.39007e+07 1.39007e+07 1.38235e+07 1.38235e+07 1.37468e+07 1.37468e+07 1.36706e+07 1.36706e+07 1.35948e+07 1.35948e+07 1.35194e+07 1.35194e+07 1.34446e+07 1.34446e+07 1.33701e+07 1.33701e+07 1.32961e+07 1.32961e+07 1.32226e+07 1.32226e+07 1.31495e+07 1.31495e+07 1.30768e+07 1.30768e+07 1.30046e+07 1.30046e+07 1.29328e+07 1.29328e+07 1.28614e+07 1.28614e+07 1.27905e+07 1.27905e+07 1.272e+07 1.272e+07 1.26499e+07 1.26499e+07 1.25802e+07 1.25802e+07 1.25109e+07 1.25109e+07 1.24421e+07 1.24421e+07 1.23736e+07 1.23736e+07 1.23056e+07 1.23056e+07 1.2238e+07 1.2238e+07 1.21708e+07 1.21708e+07 1.2104e+07 1.2104e+07 1.20376e+07 1.20376e+07 1.19715e+07 1.19715e+07 1.19059e+07 1.19059e+07 1.18407e+07 1.18407e+07 1.17758e+07 1.17758e+07 1.17114e+07 1.17114e+07 1.16473e+07 1.16473e+07 1.15836e+07 1.15836e+07 1.15203e+07 1.15203e+07 1.14574e+07 1.14574e+07 1.13949e+07 1.13949e+07 1.13327e+07 1.13327e+07 1.12709e+07 1.12709e+07 1.12094e+07 1.12094e+07 1.11483e+07 1.11483e+07 1.10876e+07 1.10876e+07 1.10273e+07 1.10273e+07 1.09673e+07 1.09673e+07 1.09077e+07 1.09077e+07 1.08484e+07 1.08484e+07 1.07894e+07 1.07894e+07 1.07309e+07 1.07309e+07 1.06726e+07 1.06726e+07 1.06148e+07 1.06148e+07 1.05572e+07 1.05572e+07 1.05e+07 1.05e+07 1.04431e+07 1.04431e+07 1.03866e+07 1.03866e+07 1.03304e+07 1.03304e+07 1.02746e+07 1.02746e+07 1.0219e+07 1.0219e+07 1.01638e+07 1.01638e+07 1.0109e+07 1.0109e+07 1.00544e+07 1.00544e+07 1.00002e+07 1.00002e+07 9.94629e+06 9.94629e+06 9.8927e+06 9.8927e+06 9.83943e+06 9.83943e+06 9.78647e+06 9.78647e+06 9.73382e+06 9.73382e+06 9.68148e+06 9.68148e+06 9.62945e+06 9.62945e+06 9.57773e+06 9.57773e+06 9.52631e+06 9.52631e+06 9.47519e+06 9.47519e+06 9.42437e+06 9.42437e+06 9.37385e+06 9.37385e+06 9.32362e+06 9.32362e+06 9.27369e+06 9.27369e+06 9.22405e+06 9.22405e+06 9.1747e+06 9.1747e+06 9.12564e+06 9.12564e+06 9.07686e+06 9.07686e+06 9.02837e+06 9.02837e+06 8.98017e+06 8.98017e+06 8.93224e+06 8.93224e+06 8.88459e+06 8.88459e+06 8.83722e+06 8.83722e+06 8.79013e+06 8.79013e+06 8.7433e+06 8.7433e+06 8.69676e+06 8.69676e+06 8.65048e+06 8.65048e+06 8.60446e+06 8.60446e+06 8.55872e+06 8.55872e+06 8.51324e+06 8.51324e+06 8.46802e+06 8.46802e+06 8.42306e+06 8.42306e+06 8.37837e+06 8.37837e+06 8.33393e+06 8.33393e+06 8.28975e+06 8.28975e+06 8.24582e+06 8.24582e+06 8.20214e+06 8.20214e+06 8.15872e+06 8.15872e+06 8.11555e+06 8.11555e+06 8.07262e+06 8.07262e+06 8.02994e+06 8.02994e+06 7.9875e+06 7.9875e+06 7.94531e+06 7.94531e+06 7.90336e+06 7.90336e+06 7.86165e+06 7.86165e+06 7.82018e+06 7.82018e+06 7.77894e+06 7.77894e+06 7.73794e+06 7.73794e+06 7.69717e+06 7.69717e+06 7.65664e+06 7.65664e+06 7.61633e+06 7.61633e+06 7.57626e+06 7.57626e+06 7.53641e+06 7.53641e+06 7.49679e+06 7.49679e+06 7.45739e+06 7.45739e+06 7.41822e+06 7.41822e+06 7.37926e+06 7.37926e+06 7.34053e+06 7.34053e+06 7.30202e+06 7.30202e+06 7.26372e+06 7.26372e+06 7.22564e+06 7.22564e+06 7.18778e+06 7.18778e+06 7.15013e+06 7.15013e+06 7.11269e+06 7.11269e+06 7.07546e+06 7.07546e+06 7.03843e+06 7.03843e+06 7.00162e+06 7.00162e+06 6.96501e+06 6.96501e+06 6.92861e+06 6.92861e+06 6.89241e+06 6.89241e+06 6.85641e+06 6.85641e+06 6.82062e+06 6.82062e+06 6.78502e+06 6.78502e+06 6.74962e+06 6.74962e+06 6.71442e+06 6.71442e+06 6.67942e+06 6.67942e+06 6.64461e+06 6.64461e+06 6.60999e+06 6.60999e+06 6.57556e+06 6.57556e+06 6.54133e+06 6.54133e+06 6.50728e+06 6.50728e+06 6.47342e+06 6.47342e+06 6.43975e+06 6.43975e+06 6.40627e+06 6.40627e+06 6.37297e+06 6.37297e+06 6.33985e+06 6.33985e+06 6.30691e+06 6.30691e+06 6.27416e+06 6.27416e+06 6.24158e+06 6.24158e+06 6.20919e+06 6.20919e+06 6.17697e+06 6.17697e+06 6.14493e+06 6.14493e+06 6.11306e+06 6.11306e+06 6.08137e+06 6.08137e+06 6.04985e+06 6.04985e+06 6.0185e+06 6.0185e+06 5.98732e+06 5.98732e+06 5.95631e+06 5.95631e+06 5.92547e+06 5.92547e+06 5.8948e+06 5.8948e+06 5.86429e+06 5.86429e+06 5.83395e+06 5.83395e+06 5.80378e+06 5.80378e+06 5.77376e+06 5.77376e+06 5.74391e+06 5.74391e+06 5.71422e+06 5.71422e+06 5.68469e+06 5.68469e+06 5.65532e+06 5.65532e+06 5.6261e+06 5.6261e+06 5.59704e+06 5.59704e+06 5.56814e+06 5.56814e+06 5.5394e+06 5.5394e+06 5.5108e+06 5.5108e+06 5.48236e+06 5.48236e+06 5.45408e+06 5.45408e+06 5.42594e+06 5.42594e+06 5.39795e+06 5.39795e+06 5.37012e+06 5.37012e+06 5.34242e+06 5.34242e+06 5.31488e+06 5.31488e+06 5.28749e+06 5.28749e+06 5.26023e+06 5.26023e+06 5.23313e+06 5.23313e+06 5.20616e+06 5.20616e+06 5.17934e+06 5.17934e+06 5.15266e+06 5.15266e+06 5.12612e+06 5.12612e+06 5.09972e+06 5.09972e+06 5.07346e+06 5.07346e+06 5.04734e+06 5.04734e+06 5.02136e+06 5.02136e+06 4.99551e+06 4.99551e+06 4.9698e+06 4.9698e+06 4.94422e+06 4.94422e+06 4.91877e+06 4.91877e+06 4.89346e+06 4.89346e+06 4.86828e+06 4.86828e+06 4.84323e+06 4.84323e+06 4.81831e+06 4.81831e+06 4.79352e+06 4.79352e+06 4.76886e+06 4.76886e+06 4.74433e+06 4.74433e+06 4.71992e+06 4.71992e+06 4.69564e+06 4.69564e+06 4.67149e+06 4.67149e+06 4.64746e+06 4.64746e+06 4.62355e+06 4.62355e+06 4.59977e+06 4.59977e+06 4.57611e+06 4.57611e+06 4.55257e+06 4.55257e+06 4.52916e+06 4.52916e+06 4.50586e+06 4.50586e+06 4.48268e+06 4.48268e+06 4.45962e+06 4.45962e+06 4.43668e+06 4.43668e+06 4.41386e+06 4.41386e+06 4.39115e+06 4.39115e+06 4.36856e+06 4.36856e+06 4.34608e+06 4.34608e+06 4.32372e+06 4.32372e+06 4.30147e+06 4.30147e+06 4.27933e+06 4.27933e+06 4.25731e+06 4.25731e+06 4.23539e+06 4.23539e+06 4.21359e+06 4.21359e+06 4.1919e+06 4.1919e+06 4.17032e+06 4.17032e+06 4.14884e+06 4.14884e+06 4.12748e+06 4.12748e+06 4.10622e+06 4.10622e+06 4.08506e+06 4.08506e+06 4.06402e+06 4.06402e+06 4.04308e+06 4.04308e+06 4.02224e+06 4.02224e+06 4.00151e+06 4.00151e+06 3.98088e+06 3.98088e+06 3.96036e+06 3.96036e+06 3.93993e+06 3.93993e+06 3.91961e+06 3.91961e+06 3.89939e+06 3.89939e+06 3.87927e+06 3.87927e+06 3.85925e+06 3.85925e+06 3.83933e+06 3.83933e+06 3.81951e+06 3.81951e+06 3.79978e+06 3.79978e+06 3.78016e+06 3.78016e+06 3.76063e+06 3.76063e+06 3.74119e+06 3.74119e+06 3.72185e+06 3.72185e+06 3.70261e+06 3.70261e+06 3.68346e+06 3.68346e+06 3.6644e+06 3.6644e+06 3.64544e+06 3.64544e+06 3.62657e+06 3.62657e+06 3.60779e+06 3.60779e+06 3.58911e+06 3.58911e+06 3.57051e+06 3.57051e+06 3.55201e+06 3.55201e+06 3.5336e+06 3.5336e+06 3.51527e+06 3.51527e+06 3.49704e+06 3.49704e+06 3.47889e+06 3.47889e+06 3.46083e+06 3.46083e+06 3.44286e+06 3.44286e+06 3.42497e+06 3.42497e+06 3.40717e+06 3.40717e+06 3.38946e+06 3.38946e+06 3.37183e+06 3.37183e+06 3.35429e+06 3.35429e+06 3.33683e+06 3.33683e+06 3.31945e+06 3.31945e+06 3.30216e+06 3.30216e+06 3.28495e+06 3.28495e+06 3.26783e+06 3.26783e+06 3.25078e+06 3.25078e+06 3.23382e+06 3.23382e+06 3.21693e+06 3.21693e+06 3.20013e+06 3.20013e+06 3.18341e+06 3.18341e+06 3.16676e+06 3.16676e+06 3.1502e+06 3.1502e+06 3.13371e+06 3.13371e+06 3.11731e+06 3.11731e+06 3.10098e+06 3.10098e+06 3.08472e+06 3.08472e+06 3.06855e+06 3.06855e+06 3.05245e+06 3.05245e+06 3.03642e+06 3.03642e+06 3.02047e+06 3.02047e+06 3.0046e+06 3.0046e+06 2.9888e+06 2.9888e+06 2.97307e+06 2.97307e+06 2.95742e+06 2.95742e+06 2.94184e+06 2.94184e+06 2.92633e+06 2.92633e+06 2.9109e+06 2.9109e+06 2.89554e+06 2.89554e+06 2.88025e+06 2.88025e+06 2.86503e+06 2.86503e+06 2.84988e+06 2.84988e+06 2.8348e+06 2.8348e+06 2.81979e+06 2.81979e+06 2.80485e+06 2.80485e+06 2.78998e+06 2.78998e+06 2.77518e+06 2.77518e+06 2.76045e+06 2.76045e+06 2.74578e+06 2.74578e+06 2.73118e+06 2.73118e+06 2.71665e+06 2.71665e+06 2.70219e+06 2.70219e+06 2.68779e+06 2.68779e+06 2.67346e+06 2.67346e+06 2.65919e+06 2.65919e+06 2.64499e+06 2.64499e+06 2.63086e+06 2.63086e+06 2.61678e+06 2.61678e+06 2.60278e+06 2.60278e+06 2.58883e+06 2.58883e+06 2.57495e+06 2.57495e+06 2.56113e+06 2.56113e+06 2.54738e+06 2.54738e+06 2.53369e+06 2.53369e+06 2.52006e+06 2.52006e+06 2.50649e+06 2.50649e+06 2.49298e+06 2.49298e+06 2.47953e+06 2.47953e+06 2.46615e+06 2.46615e+06 2.45282e+06 2.45282e+06 2.43956e+06 2.43956e+06 2.42635e+06 2.42635e+06 2.4132e+06 2.4132e+06 2.40012e+06 2.40012e+06 2.38709e+06 2.38709e+06 2.37411e+06 2.37411e+06 2.3612e+06 2.3612e+06 2.34835e+06 2.34835e+06 2.33555e+06 2.33555e+06 2.32281e+06 2.32281e+06 2.31012e+06 2.31012e+06 2.29749e+06 2.29749e+06 2.28492e+06 2.28492e+06 2.2724e+06 2.2724e+06 2.25994e+06 2.25994e+06 2.24754e+06 2.24754e+06 2.23519e+06 2.23519e+06 2.22289e+06 2.22289e+06 2.21065e+06 2.21065e+06 2.19846e+06 2.19846e+06 2.18632e+06 2.18632e+06 2.17424e+06 2.17424e+06 2.16222e+06 2.16222e+06 2.15024e+06 2.15024e+06 2.13832e+06 2.13832e+06 2.12645e+06 2.12645e+06 2.11463e+06 2.11463e+06 2.10286e+06 2.10286e+06 2.09114e+06 2.09114e+06 2.07948e+06 2.07948e+06 2.06786e+06 2.06786e+06 2.0563e+06 2.0563e+06 2.04479e+06 2.04479e+06 2.03332e+06 2.03332e+06 2.02191e+06 2.02191e+06 2.01054e+06 2.01054e+06 1.99923e+06 1.99923e+06 1.98796e+06 1.98796e+06 1.97675e+06 1.97675e+06 1.96558e+06 1.96558e+06 1.95446e+06 1.95446e+06 1.94338e+06 1.94338e+06 1.93236e+06 1.93236e+06 1.92138e+06 1.92138e+06 1.91045e+06 1.91045e+06 1.89956e+06 1.89956e+06 1.88872e+06 1.88872e+06 1.87793e+06 1.87793e+06 1.86719e+06 1.86719e+06 1.85649e+06 1.85649e+06 1.84583e+06 1.84583e+06 1.83523e+06 1.83523e+06 1.82466e+06 1.82466e+06 1.81414e+06 1.81414e+06 1.80367e+06 1.80367e+06 1.79324e+06 1.79324e+06 1.78286e+06 1.78286e+06 1.77252e+06 1.77252e+06 1.76222e+06 1.76222e+06 1.75196e+06 1.75196e+06 1.74175e+06 1.74175e+06 1.73159e+06 1.73159e+06 1.72146e+06 1.72146e+06 1.71138e+06 1.71138e+06 1.70134e+06 1.70134e+06 1.69134e+06 1.69134e+06 1.68139e+06 1.68139e+06 1.67147e+06 1.67147e+06 1.6616e+06 1.6616e+06 1.65177e+06 1.65177e+06 1.64198e+06 1.64198e+06 1.63223e+06 1.63223e+06 1.62252e+06 1.62252e+06 1.61285e+06 1.61285e+06 1.60322e+06 1.60322e+06 1.59364e+06 1.59364e+06 1.58409e+06 1.58409e+06 1.57458e+06 1.57458e+06 1.56511e+06 1.56511e+06 1.55568e+06 1.55568e+06 1.54629e+06 1.54629e+06 1.53694e+06 1.53694e+06 1.52762e+06 1.52762e+06 1.51835e+06 1.51835e+06 1.50911e+06 1.50911e+06 1.49991e+06 1.49991e+06 1.49075e+06 1.49075e+06 1.48163e+06 1.48163e+06 1.47254e+06 1.47254e+06 1.46349e+06 1.46349e+06 1.45448e+06 1.45448e+06 1.44551e+06 1.44551e+06 1.43657e+06 1.43657e+06 1.42767e+06 1.42767e+06 1.4188e+06 1.4188e+06 1.40997e+06 1.40997e+06 1.40118e+06 1.40118e+06 1.39242e+06 1.39242e+06 1.3837e+06 1.3837e+06 1.37502e+06 1.37502e+06 1.36636e+06 1.36636e+06 1.35775e+06 1.35775e+06 1.34917e+06 1.34917e+06 1.34062e+06 1.34062e+06 1.33211e+06 1.33211e+06 1.32363e+06 1.32363e+06 1.31519e+06 1.31519e+06 1.30678e+06 1.30678e+06 1.2984e+06 1.2984e+06 1.29006e+06 1.29006e+06 1.28175e+06 1.28175e+06 1.27348e+06 1.27348e+06 1.26524e+06 1.26524e+06 1.25703e+06 1.25703e+06 1.24885e+06 1.24885e+06 1.24071e+06 1.24071e+06 1.2326e+06 1.2326e+06 1.22452e+06 1.22452e+06 1.21647e+06 1.21647e+06 1.20846e+06 1.20846e+06 1.20048e+06 1.20048e+06 1.19253e+06 1.19253e+06 1.18461e+06 1.18461e+06 1.17672e+06 1.17672e+06 1.16886e+06 1.16886e+06 1.16104e+06 1.16104e+06 1.15325e+06 1.15325e+06 1.14548e+06 1.14548e+06 1.13775e+06 1.13775e+06 1.13005e+06 1.13005e+06 1.12238e+06 1.12238e+06 1.11474e+06 1.11474e+06 1.10712e+06 1.10712e+06 1.09954e+06 1.09954e+06 1.09199e+06 1.09199e+06 1.08447e+06 1.08447e+06 1.07698e+06 1.07698e+06 1.06952e+06 1.06952e+06 1.06208e+06 1.06208e+06 1.05468e+06 1.05468e+06 1.0473e+06 1.0473e+06 1.03995e+06 1.03995e+06 1.03264e+06 1.03264e+06 1.02535e+06 1.02535e+06 1.01808e+06 1.01808e+06 1.01085e+06 1.01085e+06 1.00365e+06 1.00365e+06 996470 996470 989321 989321 982200 982200 975106 975106 968040 968040 961001 961001 953989 953989 947004 947004 940046 940046 933115 933115 926211 926211 919333 919333 912482 912482 905657 905657 898858 898858 892086 892086 885339 885339 878618 878618 871923 871923 865253 865253 858609 858609 851990 851990 845397 845397 838828 838828 832285 832285 825766 825766 819272 819272 812803 812803 806358 806358 799938 799938 793542 793542 787170 787170 780823 780823 774499 774499 768199 768199 761923 761923 755670 755670 749441 749441 743236 743236 737054 737054 730895 730895 724759 724759 718646 718646 712556 712556 706489 706489 700444 700444 694422 694422 688423 688423 682446 682446 676491 676491 670558 670558 664648 664648 658759 658759 652893 652893 647048 647048 641225 641225 635423 635423 629643 629643 623884 623884 618147 618147 612430 612430 606735 606735 601061 601061 595408 595408 589775 589775 584164 584164 578573 578573 573002 573002 567452 567452 561922 561922 556413 556413 550924 550924 545455 545455 540006 540006 534576 534576 529167 529167 523777 523777 518407 518407 513057 513057 507726 507726 502414 502414 497122 497122 491849 491849 486595 486595 481361 481361 476145 476145 470948 470948 465770 465770 460610 460610 455470 455470 450347 450347 445244 445244 440158 440158 435091 435091 430043 430043 425012 425012 420000 420000 415005 415005 410029 410029 405070 405070 400129 400129 395206 395206 390300 390300 385412 385412 380542 380542 375689 375689 370853 370853 366034 366034 361233 361233 356449 356449 351681 351681 346931 346931 342198 342198 337481 337481 332781 332781 328098 328098 323431 323431 318781 318781 314148 314148 309531 309531 304930 304930 300345 300345 295777 295777 291224 291224 286688 286688 282168 282168 277663 277663 273175 273175 268702 268702 264245 264245 259804 259804 255378 255378 250968 250968 246573 246573 242193 242193 237829 237829 233480 233480 229147 229147 224828 224828 220525 220525 216236 216236 211963 211963 207704 207704 203461 203461 199232 199232 195017 195017 190818 190818 186633 186633 182462 182462 178306 178306 174164 174164 170037 170037 165924 165924 161825 161825 157740 157740 153670 153670 149613 149613 145571 145571 141542 141542 137528 137528 133527 133527 129540 129540 125566 125566 121607 121607 117661 117661 113728 113728 109809 109809 105903 105903 102011 102011 98132.2 98132.2 94266.6 94266.6 90414.1 90414.1 86574.9 86574.9 82748.8 82748.8 78935.7 78935.7 75135.6 75135.6 71348.5 71348.5 67574.3 67574.3 63813 63813 60064.5 60064.5 56328.7 56328.7 52605.6 52605.6 48895.2 48895.2 45197.4 45197.4 41512.1 41512.1 37839.3 37839.3 34179 34179 30531.1 30531.1 26895.5 26895.5 23272.3 23272.3 19661.3 19661.3 16062.5 16062.5 12475.8 12475.8 8901.31 8901.31 5338.84 5338.84 