# vtk DataFile Version 3.0
#This file was generated by the deal.II library on 2020/9/6 at 3:08:29
ASCII
DATASET UNSTRUCTURED_GRID

POINTS 4096 double
1.5 0 0
1.59692 0 0
1.59692 0 0
1.69385 0 0
1.69385 0 0
1.79077 0 0
1.79077 0 0
1.8877 0 0
1.8877 0 0
1.98462 0 0
1.98462 0 0
2.08154 0 0
2.08154 0 0
2.17847 0 0
2.17847 0 0
2.27539 0 0
2.27539 0 0
2.37231 0 0
2.37231 0 0
2.46924 0 0
2.46924 0 0
2.56616 0 0
2.56616 0 0
2.66309 0 0
2.66309 0 0
2.76001 0 0
2.76001 0 0
2.85693 0 0
2.85693 0 0
2.95386 0 0
2.95386 0 0
3.05078 0 0
3.05078 0 0
3.14771 0 0
3.14771 0 0
3.24463 0 0
3.24463 0 0
3.34155 0 0
3.34155 0 0
3.43848 0 0
3.43848 0 0
3.5354 0 0
3.5354 0 0
3.63232 0 0
3.63232 0 0
3.72925 0 0
3.72925 0 0
3.82617 0 0
3.82617 0 0
3.9231 0 0
3.9231 0 0
4.02002 0 0
4.02002 0 0
4.11694 0 0
4.11694 0 0
4.21387 0 0
4.21387 0 0
4.31079 0 0
4.31079 0 0
4.40771 0 0
4.40771 0 0
4.50464 0 0
4.50464 0 0
4.60156 0 0
4.60156 0 0
4.69849 0 0
4.69849 0 0
4.79541 0 0
4.79541 0 0
4.89233 0 0
4.89233 0 0
4.98926 0 0
4.98926 0 0
5.08618 0 0
5.08618 0 0
5.18311 0 0
5.18311 0 0
5.28003 0 0
5.28003 0 0
5.37695 0 0
5.37695 0 0
5.47388 0 0
5.47388 0 0
5.5708 0 0
5.5708 0 0
5.66772 0 0
5.66772 0 0
5.76465 0 0
5.76465 0 0
5.86157 0 0
5.86157 0 0
5.9585 0 0
5.9585 0 0
6.05542 0 0
6.05542 0 0
6.15234 0 0
6.15234 0 0
6.24927 0 0
6.24927 0 0
6.34619 0 0
6.34619 0 0
6.44312 0 0
6.44312 0 0
6.54004 0 0
6.54004 0 0
6.63696 0 0
6.63696 0 0
6.73389 0 0
6.73389 0 0
6.83081 0 0
6.83081 0 0
6.92773 0 0
6.92773 0 0
7.02466 0 0
7.02466 0 0
7.12158 0 0
7.12158 0 0
7.21851 0 0
7.21851 0 0
7.31543 0 0
7.31543 0 0
7.41235 0 0
7.41235 0 0
7.50928 0 0
7.50928 0 0
7.6062 0 0
7.6062 0 0
7.70312 0 0
7.70312 0 0
7.80005 0 0
7.80005 0 0
7.89697 0 0
7.89697 0 0
7.9939 0 0
7.9939 0 0
8.09082 0 0
8.09082 0 0
8.18774 0 0
8.18774 0 0
8.28467 0 0
8.28467 0 0
8.38159 0 0
8.38159 0 0
8.47852 0 0
8.47852 0 0
8.57544 0 0
8.57544 0 0
8.67236 0 0
8.67236 0 0
8.76929 0 0
8.76929 0 0
8.86621 0 0
8.86621 0 0
8.96313 0 0
8.96313 0 0
9.06006 0 0
9.06006 0 0
9.15698 0 0
9.15698 0 0
9.25391 0 0
9.25391 0 0
9.35083 0 0
9.35083 0 0
9.44775 0 0
9.44775 0 0
9.54468 0 0
9.54468 0 0
9.6416 0 0
9.6416 0 0
9.73853 0 0
9.73853 0 0
9.83545 0 0
9.83545 0 0
9.93237 0 0
9.93237 0 0
10.0293 0 0
10.0293 0 0
10.1262 0 0
10.1262 0 0
10.2231 0 0
10.2231 0 0
10.3201 0 0
10.3201 0 0
10.417 0 0
10.417 0 0
10.5139 0 0
10.5139 0 0
10.6108 0 0
10.6108 0 0
10.7078 0 0
10.7078 0 0
10.8047 0 0
10.8047 0 0
10.9016 0 0
10.9016 0 0
10.9985 0 0
10.9985 0 0
11.0955 0 0
11.0955 0 0
11.1924 0 0
11.1924 0 0
11.2893 0 0
11.2893 0 0
11.3862 0 0
11.3862 0 0
11.4832 0 0
11.4832 0 0
11.5801 0 0
11.5801 0 0
11.677 0 0
11.677 0 0
11.7739 0 0
11.7739 0 0
11.8708 0 0
11.8708 0 0
11.9678 0 0
11.9678 0 0
12.0647 0 0
12.0647 0 0
12.1616 0 0
12.1616 0 0
12.2585 0 0
12.2585 0 0
12.3555 0 0
12.3555 0 0
12.4524 0 0
12.4524 0 0
12.5493 0 0
12.5493 0 0
12.6462 0 0
12.6462 0 0
12.7432 0 0
12.7432 0 0
12.8401 0 0
12.8401 0 0
12.937 0 0
12.937 0 0
13.0339 0 0
13.0339 0 0
13.1309 0 0
13.1309 0 0
13.2278 0 0
13.2278 0 0
13.3247 0 0
13.3247 0 0
13.4216 0 0
13.4216 0 0
13.5186 0 0
13.5186 0 0
13.6155 0 0
13.6155 0 0
13.7124 0 0
13.7124 0 0
13.8093 0 0
13.8093 0 0
13.9062 0 0
13.9062 0 0
14.0032 0 0
14.0032 0 0
14.1001 0 0
14.1001 0 0
14.197 0 0
14.197 0 0
14.2939 0 0
14.2939 0 0
14.3909 0 0
14.3909 0 0
14.4878 0 0
14.4878 0 0
14.5847 0 0
14.5847 0 0
14.6816 0 0
14.6816 0 0
14.7786 0 0
14.7786 0 0
14.8755 0 0
14.8755 0 0
14.9724 0 0
14.9724 0 0
15.0693 0 0
15.0693 0 0
15.1663 0 0
15.1663 0 0
15.2632 0 0
15.2632 0 0
15.3601 0 0
15.3601 0 0
15.457 0 0
15.457 0 0
15.554 0 0
15.554 0 0
15.6509 0 0
15.6509 0 0
15.7478 0 0
15.7478 0 0
15.8447 0 0
15.8447 0 0
15.9417 0 0
15.9417 0 0
16.0386 0 0
16.0386 0 0
16.1355 0 0
16.1355 0 0
16.2324 0 0
16.2324 0 0
16.3293 0 0
16.3293 0 0
16.4263 0 0
16.4263 0 0
16.5232 0 0
16.5232 0 0
16.6201 0 0
16.6201 0 0
16.717 0 0
16.717 0 0
16.814 0 0
16.814 0 0
16.9109 0 0
16.9109 0 0
17.0078 0 0
17.0078 0 0
17.1047 0 0
17.1047 0 0
17.2017 0 0
17.2017 0 0
17.2986 0 0
17.2986 0 0
17.3955 0 0
17.3955 0 0
17.4924 0 0
17.4924 0 0
17.5894 0 0
17.5894 0 0
17.6863 0 0
17.6863 0 0
17.7832 0 0
17.7832 0 0
17.8801 0 0
17.8801 0 0
17.9771 0 0
17.9771 0 0
18.074 0 0
18.074 0 0
18.1709 0 0
18.1709 0 0
18.2678 0 0
18.2678 0 0
18.3647 0 0
18.3647 0 0
18.4617 0 0
18.4617 0 0
18.5586 0 0
18.5586 0 0
18.6555 0 0
18.6555 0 0
18.7524 0 0
18.7524 0 0
18.8494 0 0
18.8494 0 0
18.9463 0 0
18.9463 0 0
19.0432 0 0
19.0432 0 0
19.1401 0 0
19.1401 0 0
19.2371 0 0
19.2371 0 0
19.334 0 0
19.334 0 0
19.4309 0 0
19.4309 0 0
19.5278 0 0
19.5278 0 0
19.6248 0 0
19.6248 0 0
19.7217 0 0
19.7217 0 0
19.8186 0 0
19.8186 0 0
19.9155 0 0
19.9155 0 0
20.0125 0 0
20.0125 0 0
20.1094 0 0
20.1094 0 0
20.2063 0 0
20.2063 0 0
20.3032 0 0
20.3032 0 0
20.4001 0 0
20.4001 0 0
20.4971 0 0
20.4971 0 0
20.594 0 0
20.594 0 0
20.6909 0 0
20.6909 0 0
20.7878 0 0
20.7878 0 0
20.8848 0 0
20.8848 0 0
20.9817 0 0
20.9817 0 0
21.0786 0 0
21.0786 0 0
21.1755 0 0
21.1755 0 0
21.2725 0 0
21.2725 0 0
21.3694 0 0
21.3694 0 0
21.4663 0 0
21.4663 0 0
21.5632 0 0
21.5632 0 0
21.6602 0 0
21.6602 0 0
21.7571 0 0
21.7571 0 0
21.854 0 0
21.854 0 0
21.9509 0 0
21.9509 0 0
22.0479 0 0
22.0479 0 0
22.1448 0 0
22.1448 0 0
22.2417 0 0
22.2417 0 0
22.3386 0 0
22.3386 0 0
22.4355 0 0
22.4355 0 0
22.5325 0 0
22.5325 0 0
22.6294 0 0
22.6294 0 0
22.7263 0 0
22.7263 0 0
22.8232 0 0
22.8232 0 0
22.9202 0 0
22.9202 0 0
23.0171 0 0
23.0171 0 0
23.114 0 0
23.114 0 0
23.2109 0 0
23.2109 0 0
23.3079 0 0
23.3079 0 0
23.4048 0 0
23.4048 0 0
23.5017 0 0
23.5017 0 0
23.5986 0 0
23.5986 0 0
23.6956 0 0
23.6956 0 0
23.7925 0 0
23.7925 0 0
23.8894 0 0
23.8894 0 0
23.9863 0 0
23.9863 0 0
24.0833 0 0
24.0833 0 0
24.1802 0 0
24.1802 0 0
24.2771 0 0
24.2771 0 0
24.374 0 0
24.374 0 0
24.4709 0 0
24.4709 0 0
24.5679 0 0
24.5679 0 0
24.6648 0 0
24.6648 0 0
24.7617 0 0
24.7617 0 0
24.8586 0 0
24.8586 0 0
24.9556 0 0
24.9556 0 0
25.0525 0 0
25.0525 0 0
25.1494 0 0
25.1494 0 0
25.2463 0 0
25.2463 0 0
25.3433 0 0
25.3433 0 0
25.4402 0 0
25.4402 0 0
25.5371 0 0
25.5371 0 0
25.634 0 0
25.634 0 0
25.731 0 0
25.731 0 0
25.8279 0 0
25.8279 0 0
25.9248 0 0
25.9248 0 0
26.0217 0 0
26.0217 0 0
26.1187 0 0
26.1187 0 0
26.2156 0 0
26.2156 0 0
26.3125 0 0
26.3125 0 0
26.4094 0 0
26.4094 0 0
26.5063 0 0
26.5063 0 0
26.6033 0 0
26.6033 0 0
26.7002 0 0
26.7002 0 0
26.7971 0 0
26.7971 0 0
26.894 0 0
26.894 0 0
26.991 0 0
26.991 0 0
27.0879 0 0
27.0879 0 0
27.1848 0 0
27.1848 0 0
27.2817 0 0
27.2817 0 0
27.3787 0 0
27.3787 0 0
27.4756 0 0
27.4756 0 0
27.5725 0 0
27.5725 0 0
27.6694 0 0
27.6694 0 0
27.7664 0 0
27.7664 0 0
27.8633 0 0
27.8633 0 0
27.9602 0 0
27.9602 0 0
28.0571 0 0
28.0571 0 0
28.1541 0 0
28.1541 0 0
28.251 0 0
28.251 0 0
28.3479 0 0
28.3479 0 0
28.4448 0 0
28.4448 0 0
28.5417 0 0
28.5417 0 0
28.6387 0 0
28.6387 0 0
28.7356 0 0
28.7356 0 0
28.8325 0 0
28.8325 0 0
28.9294 0 0
28.9294 0 0
29.0264 0 0
29.0264 0 0
29.1233 0 0
29.1233 0 0
29.2202 0 0
29.2202 0 0
29.3171 0 0
29.3171 0 0
29.4141 0 0
29.4141 0 0
29.511 0 0
29.511 0 0
29.6079 0 0
29.6079 0 0
29.7048 0 0
29.7048 0 0
29.8018 0 0
29.8018 0 0
29.8987 0 0
29.8987 0 0
29.9956 0 0
29.9956 0 0
30.0925 0 0
30.0925 0 0
30.1895 0 0
30.1895 0 0
30.2864 0 0
30.2864 0 0
30.3833 0 0
30.3833 0 0
30.4802 0 0
30.4802 0 0
30.5771 0 0
30.5771 0 0
30.6741 0 0
30.6741 0 0
30.771 0 0
30.771 0 0
30.8679 0 0
30.8679 0 0
30.9648 0 0
30.9648 0 0
31.0618 0 0
31.0618 0 0
31.1587 0 0
31.1587 0 0
31.2556 0 0
31.2556 0 0
31.3525 0 0
31.3525 0 0
31.4495 0 0
31.4495 0 0
31.5464 0 0
31.5464 0 0
31.6433 0 0
31.6433 0 0
31.7402 0 0
31.7402 0 0
31.8372 0 0
31.8372 0 0
31.9341 0 0
31.9341 0 0
32.031 0 0
32.031 0 0
32.1279 0 0
32.1279 0 0
32.2249 0 0
32.2249 0 0
32.3218 0 0
32.3218 0 0
32.4187 0 0
32.4187 0 0
32.5156 0 0
32.5156 0 0
32.6125 0 0
32.6125 0 0
32.7095 0 0
32.7095 0 0
32.8064 0 0
32.8064 0 0
32.9033 0 0
32.9033 0 0
33.0002 0 0
33.0002 0 0
33.0972 0 0
33.0972 0 0
33.1941 0 0
33.1941 0 0
33.291 0 0
33.291 0 0
33.3879 0 0
33.3879 0 0
33.4849 0 0
33.4849 0 0
33.5818 0 0
33.5818 0 0
33.6787 0 0
33.6787 0 0
33.7756 0 0
33.7756 0 0
33.8726 0 0
33.8726 0 0
33.9695 0 0
33.9695 0 0
34.0664 0 0
34.0664 0 0
34.1633 0 0
34.1633 0 0
34.2603 0 0
34.2603 0 0
34.3572 0 0
34.3572 0 0
34.4541 0 0
34.4541 0 0
34.551 0 0
34.551 0 0
34.6479 0 0
34.6479 0 0
34.7449 0 0
34.7449 0 0
34.8418 0 0
34.8418 0 0
34.9387 0 0
34.9387 0 0
35.0356 0 0
35.0356 0 0
35.1326 0 0
35.1326 0 0
35.2295 0 0
35.2295 0 0
35.3264 0 0
35.3264 0 0
35.4233 0 0
35.4233 0 0
35.5203 0 0
35.5203 0 0
35.6172 0 0
35.6172 0 0
35.7141 0 0
35.7141 0 0
35.811 0 0
35.811 0 0
35.908 0 0
35.908 0 0
36.0049 0 0
36.0049 0 0
36.1018 0 0
36.1018 0 0
36.1987 0 0
36.1987 0 0
36.2957 0 0
36.2957 0 0
36.3926 0 0
36.3926 0 0
36.4895 0 0
36.4895 0 0
36.5864 0 0
36.5864 0 0
36.6833 0 0
36.6833 0 0
36.7803 0 0
36.7803 0 0
36.8772 0 0
36.8772 0 0
36.9741 0 0
36.9741 0 0
37.071 0 0
37.071 0 0
37.168 0 0
37.168 0 0
37.2649 0 0
37.2649 0 0
37.3618 0 0
37.3618 0 0
37.4587 0 0
37.4587 0 0
37.5557 0 0
37.5557 0 0
37.6526 0 0
37.6526 0 0
37.7495 0 0
37.7495 0 0
37.8464 0 0
37.8464 0 0
37.9434 0 0
37.9434 0 0
38.0403 0 0
38.0403 0 0
38.1372 0 0
38.1372 0 0
38.2341 0 0
38.2341 0 0
38.3311 0 0
38.3311 0 0
38.428 0 0
38.428 0 0
38.5249 0 0
38.5249 0 0
38.6218 0 0
38.6218 0 0
38.7188 0 0
38.7188 0 0
38.8157 0 0
38.8157 0 0
38.9126 0 0
38.9126 0 0
39.0095 0 0
39.0095 0 0
39.1064 0 0
39.1064 0 0
39.2034 0 0
39.2034 0 0
39.3003 0 0
39.3003 0 0
39.3972 0 0
39.3972 0 0
39.4941 0 0
39.4941 0 0
39.5911 0 0
39.5911 0 0
39.688 0 0
39.688 0 0
39.7849 0 0
39.7849 0 0
39.8818 0 0
39.8818 0 0
39.9788 0 0
39.9788 0 0
40.0757 0 0
40.0757 0 0
40.1726 0 0
40.1726 0 0
40.2695 0 0
40.2695 0 0
40.3665 0 0
40.3665 0 0
40.4634 0 0
40.4634 0 0
40.5603 0 0
40.5603 0 0
40.6572 0 0
40.6572 0 0
40.7542 0 0
40.7542 0 0
40.8511 0 0
40.8511 0 0
40.948 0 0
40.948 0 0
41.0449 0 0
41.0449 0 0
41.1418 0 0
41.1418 0 0
41.2388 0 0
41.2388 0 0
41.3357 0 0
41.3357 0 0
41.4326 0 0
41.4326 0 0
41.5295 0 0
41.5295 0 0
[...]
POINT_DATA 4096
SCALARS solution_0 double 1
LOOKUP_TABLE default
3.67473e+12 3.59859e+12 3.59859e+12 3.53439e+12 3.53439e+12 3.47971e+12 3.47971e+12 3.4327e+12 3.4327e+12 3.39191e+12 3.39191e+12 3.35621e+12 3.35621e+12 3.3247e+12 3.3247e+12 3.29666e+12 3.29666e+12 3.27151e+12 3.27151e+12 3.24877e+12 3.24877e+12 3.22805e+12 3.22805e+12 3.20903e+12 3.20903e+12 3.19144e+12 3.19144e+12 3.17507e+12 3.17507e+12 3.15971e+12 3.15971e+12 3.14521e+12 3.14521e+12 3.13144e+12 3.13144e+12 3.11829e+12 3.11829e+12 3.10565e+12 3.10565e+12 3.09345e+12 3.09345e+12 3.08161e+12 3.08161e+12 3.07008e+12 3.07008e+12 3.0588e+12 3.0588e+12 3.04772e+12 3.04772e+12 3.03681e+12 3.03681e+12 3.02603e+12 3.02603e+12 3.01536e+12 3.01536e+12 3.00477e+12 3.00477e+12 2.99424e+12 2.99424e+12 2.98376e+12 2.98376e+12 2.97329e+12 2.97329e+12 2.96284e+12 2.96284e+12 2.9524e+12 2.9524e+12 2.94194e+12 2.94194e+12 2.93146e+12 2.93146e+12 2.92097e+12 2.92097e+12 2.91044e+12 2.91044e+12 2.89988e+12 2.89988e+12 2.88928e+12 2.88928e+12 2.87863e+12 2.87863e+12 2.86795e+12 2.86795e+12 2.85722e+12 2.85722e+12 2.84644e+12 2.84644e+12 2.83561e+12 2.83561e+12 2.82474e+12 2.82474e+12 2.81382e+12 2.81382e+12 2.80285e+12 2.80285e+12 2.79183e+12 2.79183e+12 2.78076e+12 2.78076e+12 2.76965e+12 2.76965e+12 2.75849e+12 2.75849e+12 2.74729e+12 2.74729e+12 2.73605e+12 2.73605e+12 2.72477e+12 2.72477e+12 2.71344e+12 2.71344e+12 2.70208e+12 2.70208e+12 2.69068e+12 2.69068e+12 2.67925e+12 2.67925e+12 2.66779e+12 2.66779e+12 2.65629e+12 2.65629e+12 2.64477e+12 2.64477e+12 2.63321e+12 2.63321e+12 2.62164e+12 2.62164e+12 2.61004e+12 2.61004e+12 2.59842e+12 2.59842e+12 2.58677e+12 2.58677e+12 2.57511e+12 2.57511e+12 2.56344e+12 2.56344e+12 2.55175e+12 2.55175e+12 2.54005e+12 2.54005e+12 2.52834e+12 2.52834e+12 2.51661e+12 2.51661e+12 2.50489e+12 2.50489e+12 2.49315e+12 2.49315e+12 2.48141e+12 2.48141e+12 2.46967e+12 2.46967e+12 2.45793e+12 2.45793e+12 2.44619e+12 2.44619e+12 2.43446e+12 2.43446e+12 2.42272e+12 2.42272e+12 2.411e+12 2.411e+12 2.39928e+12 2.39928e+12 2.38757e+12 2.38757e+12 2.37587e+12 2.37587e+12 2.36417e+12 2.36417e+12 2.3525e+12 2.3525e+12 2.34083e+12 2.34083e+12 2.32918e+12 2.32918e+12 2.31755e+12 2.31755e+12 2.30594e+12 2.30594e+12 2.29434e+12 2.29434e+12 2.28276e+12 2.28276e+12 2.27121e+12 2.27121e+12 2.25967e+12 2.25967e+12 2.24816e+12 2.24816e+12 2.23667e+12 2.23667e+12 2.22521e+12 2.22521e+12 2.21377e+12 2.21377e+12 2.20236e+12 2.20236e+12 2.19098e+12 2.19098e+12 2.17963e+12 2.17963e+12 2.1683e+12 2.1683e+12 2.15701e+12 2.15701e+12 2.14575e+12 2.14575e+12 2.13451e+12 2.13451e+12 2.12331e+12 2.12331e+12 2.11215e+12 2.11215e+12 2.10101e+12 2.10101e+12 2.08992e+12 2.08992e+12 2.07885e+12 2.07885e+12 2.06783e+12 2.06783e+12 2.05683e+12 2.05683e+12 2.04588e+12 2.04588e+12 2.03496e+12 2.03496e+12 2.02408e+12 2.02408e+12 2.01324e+12 2.01324e+12 2.00244e+12 2.00244e+12 1.99168e+12 1.99168e+12 1.98095e+12 1.98095e+12 1.97027e+12 1.97027e+12 1.95963e+12 1.95963e+12 1.94902e+12 1.94902e+12 1.93846e+12 1.93846e+12 1.92794e+12 1.92794e+12 1.91747e+12 1.91747e+12 1.90703e+12 1.90703e+12 1.89664e+12 1.89664e+12 1.88629e+12 1.88629e+12 1.87599e+12 1.87599e+12 1.86572e+12 1.86572e+12 1.85551e+12 1.85551e+12 1.84533e+12 1.84533e+12 1.8352e+12 1.8352e+12 1.82512e+12 1.82512e+12 1.81507e+12 1.81507e+12 1.80508e+12 1.80508e+12 1.79513e+12 1.79513e+12 1.78522e+12 1.78522e+12 1.77536e+12 1.77536e+12 1.76554e+12 1.76554e+12 1.75577e+12 1.75577e+12 1.74605e+12 1.74605e+12 1.73637e+12 1.73637e+12 1.72673e+12 1.72673e+12 1.71715e+12 1.71715e+12 1.7076e+12 1.7076e+12 1.69811e+12 1.69811e+12 1.68866e+12 1.68866e+12 1.67926e+12 1.67926e+12 1.6699e+12 1.6699e+12 1.66059e+12 1.66059e+12 1.65132e+12 1.65132e+12 1.6421e+12 1.6421e+12 1.63293e+12 1.63293e+12 1.62381e+12 1.62381e+12 1.61472e+12 1.61472e+12 1.60569e+12 1.60569e+12 1.5967e+12 1.5967e+12 1.58776e+12 1.58776e+12 1.57887e+12 1.57887e+12 1.57002e+12 1.57002e+12 1.56122e+12 1.56122e+12 1.55246e+12 1.55246e+12 1.54375e+12 1.54375e+12 1.53508e+12 1.53508e+12 1.52646e+12 1.52646e+12 1.51789e+12 1.51789e+12 1.50936e+12 1.50936e+12 1.50088e+12 1.50088e+12 1.49244e+12 1.49244e+12 1.48405e+12 1.48405e+12 1.4757e+12 1.4757e+12 1.4674e+12 1.4674e+12 1.45915e+12 1.45915e+12 1.45094e+12 1.45094e+12 1.44277e+12 1.44277e+12 1.43465e+12 1.43465e+12 1.42657e+12 1.42657e+12 1.41854e+12 1.41854e+12 1.41055e+12 1.41055e+12 1.40261e+12 1.40261e+12 1.39471e+12 1.39471e+12 1.38685e+12 1.38685e+12 1.37904e+12 1.37904e+12 1.37127e+12 1.37127e+12 1.36355e+12 1.36355e+12 1.35587e+12 1.35587e+12 1.34823e+12 1.34823e+12 1.34063e+12 1.34063e+12 1.33308e+12 1.33308e+12 1.32557e+12 1.32557e+12 1.31811e+12 1.31811e+12 1.31068e+12 1.31068e+12 1.3033e+12 1.3033e+12 1.29596e+12 1.29596e+12 1.28866e+12 1.28866e+12 1.28141e+12 1.28141e+12 1.27419e+12 1.27419e+12 1.26702e+12 1.26702e+12 1.25989e+12 1.25989e+12 1.2528e+12 1.2528e+12 1.24575e+12 1.24575e+12 1.23874e+12 1.23874e+12 1.23178e+12 1.23178e+12 1.22485e+12 1.22485e+12 1.21796e+12 1.21796e+12 1.21111e+12 1.21111e+12 1.20431e+12 1.20431e+12 1.19754e+12 1.19754e+12 1.19081e+12 1.19081e+12 1.18412e+12 1.18412e+12 1.17747e+12 1.17747e+12 1.17086e+12 1.17086e+12 1.16429e+12 1.16429e+12 1.15776e+12 1.15776e+12 1.15126e+12 1.15126e+12 1.1448e+12 1.1448e+12 1.13838e+12 1.13838e+12 1.132e+12 1.132e+12 1.12566e+12 1.12566e+12 1.11935e+12 1.11935e+12 1.11308e+12 1.11308e+12 1.10685e+12 1.10685e+12 1.10066e+12 1.10066e+12 1.0945e+12 1.0945e+12 1.08838e+12 1.08838e+12 1.08229e+12 1.08229e+12 1.07624e+12 1.07624e+12 1.07023e+12 1.07023e+12 1.06425e+12 1.06425e+12 1.05831e+12 1.05831e+12 1.0524e+12 1.0524e+12 1.04653e+12 1.04653e+12 1.04069e+12 1.04069e+12 1.03489e+12 1.03489e+12 1.02912e+12 1.02912e+12 1.02339e+12 1.02339e+12 1.01769e+12 1.01769e+12 1.01202e+12 1.01202e+12 1.00639e+12 1.00639e+12 1.00079e+12 1.00079e+12 9.9523e+11 9.9523e+11 9.89699e+11 9.89699e+11 9.84201e+11 9.84201e+11 9.78736e+11 9.78736e+11 9.73303e+11 9.73303e+11 9.67903e+11 9.67903e+11 9.62535e+11 9.62535e+11 9.57199e+11 9.57199e+11 9.51895e+11 9.51895e+11 9.46622e+11 9.46622e+11 9.41382e+11 9.41382e+11 9.36172e+11 9.36172e+11 9.30994e+11 9.30994e+11 9.25847e+11 9.25847e+11 9.20731e+11 9.20731e+11 9.15645e+11 9.15645e+11 9.10589e+11 9.10589e+11 9.05564e+11 9.05564e+11 9.00569e+11 9.00569e+11 8.95604e+11 8.95604e+11 8.90668e+11 8.90668e+11 8.85762e+11 8.85762e+11 8.80886e+11 8.80886e+11 8.76038e+11 8.76038e+11 8.7122e+11 8.7122e+11 8.6643e+11 8.6643e+11 8.61669e+11 8.61669e+11 8.56937e+11 8.56937e+11 8.52232e+11 8.52232e+11 8.47556e+11 8.47556e+11 8.42908e+11 8.42908e+11 8.38288e+11 8.38288e+11 8.33695e+11 8.33695e+11 8.2913e+11 8.2913e+11 8.24591e+11 8.24591e+11 8.2008e+11 8.2008e+11 8.15596e+11 8.15596e+11 8.11139e+11 8.11139e+11 8.06708e+11 8.06708e+11 8.02304e+11 8.02304e+11 7.97926e+11 7.97926e+11 7.93574e+11 7.93574e+11 7.89248e+11 7.89248e+11 7.84947e+11 7.84947e+11 7.80673e+11 7.80673e+11 7.76423e+11 7.76423e+11 7.72199e+11 7.72199e+11 7.68001e+11 7.68001e+11 7.63827e+11 7.63827e+11 7.59678e+11 7.59678e+11 7.55553e+11 7.55553e+11 7.51453e+11 7.51453e+11 7.47377e+11 7.47377e+11 7.43326e+11 7.43326e+11 7.39299e+11 7.39299e+11 7.35295e+11 7.35295e+11 7.31315e+11 7.31315e+11 7.27359e+11 7.27359e+11 7.23426e+11 7.23426e+11 7.19516e+11 7.19516e+11 7.1563e+11 7.1563e+11 7.11766e+11 7.11766e+11 7.07926e+11 7.07926e+11 7.04107e+11 7.04107e+11 7.00312e+11 7.00312e+11 6.96539e+11 6.96539e+11 6.92788e+11 6.92788e+11 6.89059e+11 6.89059e+11 6.85352e+11 6.85352e+11 6.81667e+11 6.81667e+11 6.78004e+11 6.78004e+11 6.74362e+11 6.74362e+11 6.70741e+11 6.70741e+11 6.67142e+11 6.67142e+11 6.63564e+11 6.63564e+11 6.60007e+11 6.60007e+11 6.5647e+11 6.5647e+11 6.52955e+11 6.52955e+11 6.49459e+11 6.49459e+11 6.45985e+11 6.45985e+11 6.4253e+11 6.4253e+11 6.39096e+11 6.39096e+11 6.35682e+11 6.35682e+11 6.32288e+11 6.32288e+11 6.28913e+11 6.28913e+11 6.25558e+11 6.25558e+11 6.22223e+11 6.22223e+11 6.18907e+11 6.18907e+11 6.15611e+11 6.15611e+11 6.12333e+11 6.12333e+11 6.09074e+11 6.09074e+11 6.05835e+11 6.05835e+11 6.02614e+11 6.02614e+11 5.99412e+11 5.99412e+11 5.96228e+11 5.96228e+11 5.93063e+11 5.93063e+11 5.89916e+11 5.89916e+11 5.86787e+11 5.86787e+11 5.83676e+11 5.83676e+11 5.80583e+11 5.80583e+11 5.77508e+11 5.77508e+11 5.7445e+11 5.7445e+11 5.7141e+11 5.7141e+11 5.68388e+11 5.68388e+11 5.65383e+11 5.65383e+11 5.62395e+11 5.62395e+11 5.59424e+11 5.59424e+11 5.56471e+11 5.56471e+11 5.53534e+11 5.53534e+11 5.50614e+11 5.50614e+11 5.4771e+11 5.4771e+11 5.44823e+11 5.44823e+11 5.41953e+11 5.41953e+11 5.39099e+11 5.39099e+11 5.36261e+11 5.36261e+11 5.3344e+11 5.3344e+11 5.30634e+11 5.30634e+11 5.27844e+11 5.27844e+11 5.2507e+11 5.2507e+11 5.22312e+11 5.22312e+11 5.19569e+11 5.19569e+11 5.16842e+11 5.16842e+11 5.14131e+11 5.14131e+11 5.11434e+11 5.11434e+11 5.08753e+11 5.08753e+11 5.06087e+11 5.06087e+11 5.03436e+11 5.03436e+11 5.008e+11 5.008e+11 4.98178e+11 4.98178e+11 4.95572e+11 4.95572e+11 4.9298e+11 4.9298e+11 4.90402e+11 4.90402e+11 4.87839e+11 4.87839e+11 4.8529e+11 4.8529e+11 4.82756e+11 4.82756e+11 4.80236e+11 4.80236e+11 4.77729e+11 4.77729e+11 4.75237e+11 4.75237e+11 4.72758e+11 4.72758e+11 4.70294e+11 4.70294e+11 4.67843e+11 4.67843e+11 4.65405e+11 4.65405e+11 4.62981e+11 4.62981e+11 4.60571e+11 4.60571e+11 4.58174e+11 4.58174e+11 4.5579e+11 4.5579e+11 4.53419e+11 4.53419e+11 4.51061e+11 4.51061e+11 4.48717e+11 4.48717e+11 4.46385e+11 4.46385e+11 4.44066e+11 4.44066e+11 4.4176e+11 4.4176e+11 4.39466e+11 4.39466e+11 4.37185e+11 4.37185e+11 4.34917e+11 4.34917e+11 4.32661e+11 4.32661e+11 4.30417e+11 4.30417e+11 4.28185e+11 4.28185e+11 4.25966e+11 4.25966e+11 4.23759e+11 4.23759e+11 4.21564e+11 4.21564e+11 4.1938e+11 4.1938e+11 4.17209e+11 4.17209e+11 4.15049e+11 4.15049e+11 4.12901e+11 4.12901e+11 4.10765e+11 4.10765e+11 4.0864e+11 4.0864e+11 4.06527e+11 4.06527e+11 4.04425e+11 4.04425e+11 4.02335e+11 4.02335e+11 4.00256e+11 4.00256e+11 3.98187e+11 3.98187e+11 3.96131e+11 3.96131e+11 3.94085e+11 3.94085e+11 3.9205e+11 3.9205e+11 3.90026e+11 3.90026e+11 3.88013e+11 3.88013e+11 3.8601e+11 3.8601e+11 3.84018e+11 3.84018e+11 3.82037e+11 3.82037e+11 3.80067e+11 3.80067e+11 3.78107e+11 3.78107e+11 3.76157e+11 3.76157e+11 3.74218e+11 3.74218e+11 3.72289e+11 3.72289e+11 3.7037e+11 3.7037e+11 3.68462e+11 3.68462e+11 3.66563e+11 3.66563e+11 3.64675e+11 3.64675e+11 3.62796e+11 3.62796e+11 3.60927e+11 3.60927e+11 3.59069e+11 3.59069e+11 3.5722e+11 3.5722e+11 3.55381e+11 3.55381e+11 3.53551e+11 3.53551e+11 3.51731e+11 3.51731e+11 3.4992e+11 3.4992e+11 3.48119e+11 3.48119e+11 3.46328e+11 3.46328e+11 3.44546e+11 3.44546e+11 3.42773e+11 3.42773e+11 3.41009e+11 3.41009e+11 3.39254e+11 3.39254e+11 3.37509e+11 3.37509e+11 3.35773e+11 3.35773e+11 3.34045e+11 3.34045e+11 3.32327e+11 3.32327e+11 3.30618e+11 3.30618e+11 3.28917e+11 3.28917e+11 3.27225e+11 3.27225e+11 3.25542e+11 3.25542e+11 3.23867e+11 3.23867e+11 3.22201e+11 3.22201e+11 3.20544e+11 3.20544e+11 3.18895e+11 3.18895e+11 3.17255e+11 3.17255e+11 3.15623e+11 3.15623e+11 3.14e+11 3.14e+11 3.12384e+11 3.12384e+11 3.10777e+11 3.10777e+11 3.09178e+11 3.09178e+11 3.07588e+11 3.07588e+11 3.06005e+11 3.06005e+11 3.0443e+11 3.0443e+11 3.02864e+11 3.02864e+11 3.01305e+11 3.01305e+11 2.99755e+11 2.99755e+11 2.98212e+11 2.98212e+11 2.96677e+11 2.96677e+11 2.95149e+11 2.95149e+11 2.9363e+11 2.9363e+11 2.92118e+11 2.92118e+11 2.90613e+11 2.90613e+11 2.89116e+11 2.89116e+11 2.87627e+11 2.87627e+11 2.86145e+11 2.86145e+11 2.84671e+11 2.84671e+11 2.83204e+11 2.83204e+11 2.81744e+11 2.81744e+11 2.80292e+11 2.80292e+11 2.78847e+11 2.78847e+11 2.77409e+11 2.77409e+11 2.75978e+11 2.75978e+11 2.74554e+11 2.74554e+11 2.73138e+11 2.73138e+11 2.71728e+11 2.71728e+11 2.70325e+11 2.70325e+11 2.6893e+11 2.6893e+11 2.67541e+11 2.67541e+11 2.66159e+11 2.66159e+11 2.64784e+11 2.64784e+11 2.63415e+11 2.63415e+11 2.62054e+11 2.62054e+11 2.60699e+11 2.60699e+11 2.5935e+11 2.5935e+11 2.58009e+11 2.58009e+11 2.56674e+11 2.56674e+11 2.55345e+11 2.55345e+11 2.54023e+11 2.54023e+11 2.52707e+11 2.52707e+11 2.51398e+11 2.51398e+11 2.50095e+11 2.50095e+11 2.48799e+11 2.48799e+11 2.47508e+11 2.47508e+11 2.46225e+11 2.46225e+11 2.44947e+11 2.44947e+11 2.43675e+11 2.43675e+11 2.4241e+11 2.4241e+11 2.41151e+11 2.41151e+11 2.39897e+11 2.39897e+11 2.3865e+11 2.3865e+11 2.37409e+11 2.37409e+11 2.36174e+11 2.36174e+11 2.34944e+11 2.34944e+11 2.33721e+11 2.33721e+11 2.32504e+11 2.32504e+11 2.31292e+11 2.31292e+11 2.30086e+11 2.30086e+11 2.28886e+11 2.28886e+11 2.27691e+11 2.27691e+11 2.26503e+11 2.26503e+11 2.2532e+11 2.2532e+11 2.24142e+11 2.24142e+11 2.2297e+11 2.2297e+11 2.21804e+11 2.21804e+11 2.20643e+11 2.20643e+11 2.19488e+11 2.19488e+11 2.18338e+11 2.18338e+11 2.17194e+11 2.17194e+11 2.16055e+11 2.16055e+11 2.14921e+11 2.14921e+11 2.13793e+11 2.13793e+11 2.1267e+11 2.1267e+11 2.11552e+11 2.11552e+11 2.1044e+11 2.1044e+11 2.09333e+11 2.09333e+11 2.0823e+11 2.0823e+11 2.07134e+11 2.07134e+11 2.06042e+11 2.06042e+11 2.04955e+11 2.04955e+11 2.03873e+11 2.03873e+11 2.02797e+11 2.02797e+11 2.01725e+11 2.01725e+11 2.00659e+11 2.00659e+11 1.99597e+11 1.99597e+11 1.9854e+11 1.9854e+11 1.97488e+11 1.97488e+11 1.96441e+11 1.96441e+11 1.95399e+11 1.95399e+11 1.94362e+11 1.94362e+11 1.93329e+11 1.93329e+11 1.92301e+11 1.92301e+11 1.91278e+11 1.91278e+11 1.9026e+11 1.9026e+11 1.89246e+11 1.89246e+11 1.88237e+11 1.88237e+11 1.87233e+11 1.87233e+11 1.86233e+11 1.86233e+11 1.85237e+11 1.85237e+11 1.84247e+11 1.84247e+11 1.8326e+11 1.8326e+11 1.82278e+11 1.82278e+11 1.81301e+11 1.81301e+11 1.80328e+11 1.80328e+11 1.7936e+11 1.7936e+11 1.78396e+11 1.78396e+11 1.77436e+11 1.77436e+11 1.76481e+11 1.76481e+11 1.7553e+11 1.7553e+11 1.74583e+11 1.74583e+11 1.7364e+11 1.7364e+11 1.72702e+11 1.72702e+11 1.71768e+11 1.71768e+11 1.70838e+11 1.70838e+11 1.69913e+11 1.69913e+11 1.68991e+11 1.68991e+11 1.68074e+11 1.68074e+11 1.6716e+11 1.6716e+11 1.66251e+11 1.66251e+11 1.65346e+11 1.65346e+11 1.64445e+11 1.64445e+11 1.63548e+11 1.63548e+11 1.62655e+11 1.62655e+11 1.61765e+11 1.61765e+11 1.6088e+11 1.6088e+11 1.59999e+11 1.59999e+11 1.59122e+11 1.59122e+11 1.58248e+11 1.58248e+11 1.57379e+11 1.57379e+11 1.56513e+11 1.56513e+11 1.55651e+11 1.55651e+11 1.54793e+11 1.54793e+11 1.53938e+11 1.53938e+11 1.53088e+11 1.53088e+11 1.52241e+11 1.52241e+11 1.51397e+11 1.51397e+11 1.50558e+11 1.50558e+11 1.49722e+11 1.49722e+11 1.4889e+11 1.4889e+11 1.48061e+11 1.48061e+11 1.47236e+11 1.47236e+11 1.46415e+11 1.46415e+11 1.45597e+11 1.45597e+11 1.44783e+11 1.44783e+11 1.43973e+11 1.43973e+11 1.43165e+11 1.43165e+11 1.42362e+11 1.42362e+11 1.41562e+11 1.41562e+11 1.40765e+11 1.40765e+11 1.39972e+11 1.39972e+11 1.39182e+11 1.39182e+11 1.38395e+11 1.38395e+11 1.37612e+11 1.37612e+11 1.36833e+11 1.36833e+11 1.36056e+11 1.36056e+11 1.35283e+11 1.35283e+11 1.34514e+11 1.34514e+11 1.33747e+11 1.33747e+11 1.32984e+11 1.32984e+11 1.32225e+11 1.32225e+11 1.31468e+11 1.31468e+11 1.30715e+11 1.30715e+11 1.29964e+11 1.29964e+11 1.29218e+11 1.29218e+11 1.28474e+11 1.28474e+11 1.27733e+11 1.27733e+11 1.26996e+11 1.26996e+11 1.26261e+11 1.26261e+11 1.2553e+11 1.2553e+11 1.24802e+11 1.24802e+11 1.24077e+11 1.24077e+11 1.23355e+11 1.23355e+11 1.22636e+11 1.22636e+11 1.2192e+11 1.2192e+11 1.21207e+11 1.21207e+11 1.20498e+11 1.20498e+11 1.19791e+11 1.19791e+11 1.19087e+11 1.19087e+11 1.18386e+11 1.18386e+11 1.17688e+11 1.17688e+11 1.16993e+11 1.16993e+11 1.163e+11 1.163e+11 1.15611e+11 1.15611e+11 1.14925e+11 1.14925e+11 1.14241e+11 1.14241e+11 1.1356e+11 1.1356e+11 1.12882e+11 1.12882e+11 1.12207e+11 1.12207e+11 1.11535e+11 1.11535e+11 1.10866e+11 1.10866e+11 1.10199e+11 1.10199e+11 1.09535e+11 1.09535e+11 1.08874e+11 1.08874e+11 1.08215e+11 1.08215e+11 1.07559e+11 1.07559e+11 1.06906e+11 1.06906e+11 1.06256e+11 1.06256e+11 1.05608e+11 1.05608e+11 1.04963e+11 1.04963e+11 1.04321e+11 1.04321e+11 1.03681e+11 1.03681e+11 1.03044e+11 1.03044e+11 1.0241e+11 1.0241e+11 1.01778e+11 1.01778e+11 1.01148e+11 1.01148e+11 1.00522e+11 1.00522e+11 9.98974e+10 9.98974e+10 9.92758e+10 9.92758e+10 9.86567e+10 9.86567e+10 9.80401e+10 9.80401e+10 9.7426e+10 9.7426e+10 9.68144e+10 9.68144e+10 9.62053e+10 9.62053e+10 9.55986e+10 9.55986e+10 9.49944e+10 9.49944e+10 9.43926e+10 9.43926e+10 9.37933e+10 9.37933e+10 9.31964e+10 9.31964e+10 9.26019e+10 9.26019e+10 9.20098e+10 9.20098e+10 9.14201e+10 9.14201e+10 9.08328e+10 9.08328e+10 9.02478e+10 9.02478e+10 8.96652e+10 8.96652e+10 8.90849e+10 8.90849e+10 8.85069e+10 8.85069e+10 8.79312e+10 8.79312e+10 8.73579e+10 8.73579e+10 8.67868e+10 8.67868e+10 8.6218e+10 8.6218e+10 8.56515e+10 8.56515e+10 8.50873e+10 8.50873e+10 8.45253e+10 8.45253e+10 8.39655e+10 8.39655e+10 8.34079e+10 8.34079e+10 8.28526e+10 8.28526e+10 8.22994e+10 8.22994e+10 8.17485e+10 8.17485e+10 8.11997e+10 8.11997e+10 8.06531e+10 8.06531e+10 8.01087e+10 8.01087e+10 7.95664e+10 7.95664e+10 7.90263e+10 7.90263e+10 7.84882e+10 7.84882e+10 7.79524e+10 7.79524e+10 7.74186e+10 7.74186e+10 7.68869e+10 7.68869e+10 7.63573e+10 7.63573e+10 7.58297e+10 7.58297e+10 7.53043e+10 7.53043e+10 7.47809e+10 7.47809e+10 7.42595e+10 7.42595e+10 7.37402e+10 7.37402e+10 7.32229e+10 7.32229e+10 7.27076e+10 7.27076e+10 7.21944e+10 7.21944e+10 7.16831e+10 7.16831e+10 7.11738e+10 7.11738e+10 7.06665e+10 7.06665e+10 7.01612e+10 7.01612e+10 6.96578e+10 6.96578e+10 6.91564e+10 6.91564e+10 6.8657e+10 6.8657e+10 6.81594e+10 6.81594e+10 6.76638e+10 6.76638e+10 6.71701e+10 6.71701e+10 6.66783e+10 6.66783e+10 6.61884e+10 6.61884e+10 6.57004e+10 6.57004e+10 6.52143e+10 6.52143e+10 6.47301e+10 6.47301e+10 6.42477e+10 6.42477e+10 6.37671e+10 6.37671e+10 6.32884e+10 6.32884e+10 6.28116e+10 6.28116e+10 6.23365e+10 6.23365e+10 6.18633e+10 6.18633e+10 6.13919e+10 6.13919e+10 6.09223e+10 6.09223e+10 6.04545e+10 6.04545e+10 5.99885e+10 5.99885e+10 5.95242e+10 5.95242e+10 5.90617e+10 5.90617e+10 5.8601e+10 5.8601e+10 5.8142e+10 5.8142e+10 5.76848e+10 5.76848e+10 5.72293e+10 5.72293e+10 5.67755e+10 5.67755e+10 5.63235e+10 5.63235e+10 5.58732e+10 5.58732e+10 5.54245e+10 5.54245e+10 5.49776e+10 5.49776e+10 5.45323e+10 5.45323e+10 5.40888e+10 5.40888e+10 5.36469e+10 5.36469e+10 5.32066e+10 5.32066e+10 5.27681e+10 5.27681e+10 5.23311e+10 5.23311e+10 5.18959e+10 5.18959e+10 5.14622e+10 5.14622e+10 5.10302e+10 5.10302e+10 5.05998e+10 5.05998e+10 5.0171e+10 5.0171e+10 4.97438e+10 4.97438e+10 4.93182e+10 4.93182e+10 4.88942e+10 4.88942e+10 4.84718e+10 4.84718e+10 4.80509e+10 4.80509e+10 4.76317e+10 4.76317e+10 4.7214e+10 4.7214e+10 4.67978e+10 4.67978e+10 4.63832e+10 4.63832e+10 4.59701e+10 4.59701e+10 4.55586e+10 4.55586e+10 4.51486e+10 4.51486e+10 4.47401e+10 4.47401e+10 4.43331e+10 4.43331e+10 4.39276e+10 4.39276e+10 4.35237e+10 4.35237e+10 4.31212e+10 4.31212e+10 4.27202e+10 4.27202e+10 4.23207e+10 4.23207e+10 4.19226e+10 4.19226e+10 4.15261e+10 4.15261e+10 4.1131e+10 4.1131e+10 4.07373e+10 4.07373e+10 4.03451e+10 4.03451e+10 3.99543e+10 3.99543e+10 3.9565e+10 3.9565e+10 3.9177e+10 3.9177e+10 3.87905e+10 3.87905e+10 3.84055e+10 3.84055e+10 3.80218e+10 3.80218e+10 3.76395e+10 3.76395e+10 3.72587e+10 3.72587e+10 3.68792e+10 3.68792e+10 3.65011e+10 3.65011e+10 3.61244e+10 3.61244e+10 3.5749e+10 3.5749e+10 3.5375e+10 3.5375e+10 3.50024e+10 3.50024e+10 3.46311e+10 3.46311e+10 3.42612e+10 3.42612e+10 3.38926e+10 3.38926e+10 3.35254e+10 3.35254e+10 3.31595e+10 3.31595e+10 3.27949e+10 3.27949e+10 3.24316e+10 3.24316e+10 3.20697e+10 3.20697e+10 3.1709e+10 3.1709e+10 3.13497e+10 3.13497e+10 3.09916e+10 3.09916e+10 3.06348e+10 3.06348e+10 3.02794e+10 3.02794e+10 2.99252e+10 2.99252e+10 2.95722e+10 2.95722e+10 2.92206e+10 2.92206e+10 2.88702e+10 2.88702e+10 2.8521e+10 2.8521e+10 2.81732e+10 2.81732e+10 2.78265e+10 2.78265e+10 2.74811e+10 2.74811e+10 2.7137e+10 2.7137e+10 2.6794e+10 2.6794e+10 2.64523e+10 2.64523e+10 2.61118e+10 2.61118e+10 2.57726e+10 2.57726e+10 2.54345e+10 2.54345e+10 2.50976e+10 2.50976e+10 2.4762e+10 2.4762e+10 2.44275e+10 2.44275e+10 2.40942e+10 2.40942e+10 2.37621e+10 2.37621e+10 2.34312e+10 2.34312e+10 2.31015e+10 2.31015e+10 2.27729e+10 2.27729e+10 2.24455e+10 2.24455e+10