# vtk DataFile Version 3.0
#This file was generated by the deal.II library on 2020/9/6 at 3:11:49
ASCII
DATASET UNSTRUCTURED_GRID

POINTS 4096 double
1.5 0 0
1.59692 0 0
1.59692 0 0
1.69385 0 0
1.69385 0 0
1.79077 0 0
1.79077 0 0
1.8877 0 0
1.8877 0 0
1.98462 0 0
1.98462 0 0
2.08154 0 0
2.08154 0 0
2.17847 0 0
2.17847 0 0
2.27539 0 0
2.27539 0 0
2.37231 0 0
2.37231 0 0
2.46924 0 0
2.46924 0 0
2.56616 0 0
2.56616 0 0
2.66309 0 0
2.66309 0 0
2.76001 0 0
2.76001 0 0
2.85693 0 0
2.85693 0 0
2.95386 0 0
2.95386 0 0
3.05078 0 0
3.05078 0 0
3.14771 0 0
3.14771 0 0
3.24463 0 0
3.24463 0 0
3.34155 0 0
3.34155 0 0
3.43848 0 0
3.43848 0 0
3.5354 0 0
3.5354 0 0
3.63232 0 0
3.63232 0 0
3.72925 0 0
3.72925 0 0
3.82617 0 0
3.82617 0 0
3.9231 0 0
3.9231 0 0
4.02002 0 0
4.02002 0 0
4.11694 0 0
4.11694 0 0
4.21387 0 0
4.21387 0 0
4.31079 0 0
4.31079 0 0
4.40771 0 0
4.40771 0 0
4.50464 0 0
4.50464 0 0
4.60156 0 0
4.60156 0 0
4.69849 0 0
4.69849 0 0
4.79541 0 0
4.79541 0 0
4.89233 0 0
4.89233 0 0
4.98926 0 0
4.98926 0 0
5.08618 0 0
5.08618 0 0
5.18311 0 0
5.18311 0 0
5.28003 0 0
5.28003 0 0
5.37695 0 0
5.37695 0 0
5.47388 0 0
5.47388 0 0
5.5708 0 0
5.5708 0 0
5.66772 0 0
5.66772 0 0
5.76465 0 0
5.76465 0 0
5.86157 0 0
5.86157 0 0
5.9585 0 0
5.9585 0 0
6.05542 0 0
6.05542 0 0
6.15234 0 0
6.15234 0 0
6.24927 0 0
6.24927 0 0
6.34619 0 0
6.34619 0 0
6.44312 0 0
6.44312 0 0
6.54004 0 0
6.54004 0 0
6.63696 0 0
6.63696 0 0
6.73389 0 0
6.73389 0 0
6.83081 0 0
6.83081 0 0
6.92773 0 0
6.92773 0 0
7.02466 0 0
7.02466 0 0
7.12158 0 0
7.12158 0 0
7.21851 0 0
7.21851 0 0
7.31543 0 0
7.31543 0 0
7.41235 0 0
7.41235 0 0
7.50928 0 0
7.50928 0 0
7.6062 0 0
7.6062 0 0
7.70312 0 0
7.70312 0 0
7.80005 0 0
7.80005 0 0
7.89697 0 0
7.89697 0 0
7.9939 0 0
7.9939 0 0
8.09082 0 0
8.09082 0 0
8.18774 0 0
8.18774 0 0
8.28467 0 0
8.28467 0 0
8.38159 0 0
8.38159 0 0
8.47852 0 0
8.47852 0 0
8.57544 0 0
8.57544 0 0
8.67236 0 0
8.67236 0 0
8.76929 0 0
8.76929 0 0
8.86621 0 0
8.86621 0 0
8.96313 0 0
8.96313 0 0
9.06006 0 0
9.06006 0 0
9.15698 0 0
9.15698 0 0
9.25391 0 0
9.25391 0 0
9.35083 0 0
9.35083 0 0
9.44775 0 0
9.44775 0 0
9.54468 0 0
9.54468 0 0
9.6416 0 0
9.6416 0 0
9.73853 0 0
9.73853 0 0
9.83545 0 0
9.83545 0 0
9.93237 0 0
9.93237 0 0
10.0293 0 0
10.0293 0 0
10.1262 0 0
10.1262 0 0
10.2231 0 0
10.2231 0 0
10.3201 0 0
10.3201 0 0
10.417 0 0
10.417 0 0
10.5139 0 0
10.5139 0 0
10.6108 0 0
10.6108 0 0
10.7078 0 0
10.7078 0 0
10.8047 0 0
10.8047 0 0
10.9016 0 0
10.9016 0 0
10.9985 0 0
10.9985 0 0
11.0955 0 0
11.0955 0 0
11.1924 0 0
11.1924 0 0
11.2893 0 0
11.2893 0 0
11.3862 0 0
11.3862 0 0
11.4832 0 0
11.4832 0 0
11.5801 0 0
11.5801 0 0
11.677 0 0
11.677 0 0
11.7739 0 0
11.7739 0 0
11.8708 0 0
11.8708 0 0
11.9678 0 0
11.9678 0 0
12.0647 0 0
12.0647 0 0
12.1616 0 0
12.1616 0 0
12.2585 0 0
12.2585 0 0
12.3555 0 0
12.3555 0 0
12.4524 0 0
12.4524 0 0
12.5493 0 0
12.5493 0 0
12.6462 0 0
12.6462 0 0
12.7432 0 0
12.7432 0 0
12.8401 0 0
12.8401 0 0
12.937 0 0
12.937 0 0
13.0339 0 0
13.0339 0 0
13.1309 0 0
13.1309 0 0
13.2278 0 0
13.2278 0 0
13.3247 0 0
13.3247 0 0
13.4216 0 0
13.4216 0 0
13.5186 0 0
13.5186 0 0
13.6155 0 0
13.6155 0 0
13.7124 0 0
13.7124 0 0
13.8093 0 0
13.8093 0 0
13.9062 0 0
13.9062 0 0
14.0032 0 0
14.0032 0 0
14.1001 0 0
14.1001 0 0
14.197 0 0
14.197 0 0
14.2939 0 0
14.2939 0 0
14.3909 0 0
14.3909 0 0
14.4878 0 0
14.4878 0 0
14.5847 0 0
14.5847 0 0
14.6816 0 0
14.6816 0 0
14.7786 0 0
14.7786 0 0
14.8755 0 0
14.8755 0 0
14.9724 0 0
14.9724 0 0
15.0693 0 0
15.0693 0 0
15.1663 0 0
15.1663 0 0
15.2632 0 0
15.2632 0 0
15.3601 0 0
15.3601 0 0
15.457 0 0
15.457 0 0
15.554 0 0
15.554 0 0
15.6509 0 0
15.6509 0 0
15.7478 0 0
15.7478 0 0
15.8447 0 0
15.8447 0 0
15.9417 0 0
15.9417 0 0
16.0386 0 0
16.0386 0 0
16.1355 0 0
16.1355 0 0
16.2324 0 0
16.2324 0 0
16.3293 0 0
16.3293 0 0
16.4263 0 0
16.4263 0 0
16.5232 0 0
16.5232 0 0
16.6201 0 0
16.6201 0 0
16.717 0 0
16.717 0 0
16.814 0 0
16.814 0 0
16.9109 0 0
16.9109 0 0
17.0078 0 0
17.0078 0 0
17.1047 0 0
17.1047 0 0
17.2017 0 0
17.2017 0 0
17.2986 0 0
17.2986 0 0
17.3955 0 0
17.3955 0 0
17.4924 0 0
17.4924 0 0
17.5894 0 0
17.5894 0 0
17.6863 0 0
17.6863 0 0
17.7832 0 0
17.7832 0 0
17.8801 0 0
17.8801 0 0
17.9771 0 0
17.9771 0 0
18.074 0 0
18.074 0 0
18.1709 0 0
18.1709 0 0
18.2678 0 0
18.2678 0 0
18.3647 0 0
18.3647 0 0
18.4617 0 0
18.4617 0 0
18.5586 0 0
18.5586 0 0
18.6555 0 0
18.6555 0 0
18.7524 0 0
18.7524 0 0
18.8494 0 0
18.8494 0 0
18.9463 0 0
18.9463 0 0
19.0432 0 0
19.0432 0 0
19.1401 0 0
19.1401 0 0
19.2371 0 0
19.2371 0 0
19.334 0 0
19.334 0 0
19.4309 0 0
19.4309 0 0
19.5278 0 0
19.5278 0 0
19.6248 0 0
19.6248 0 0
19.7217 0 0
19.7217 0 0
19.8186 0 0
19.8186 0 0
19.9155 0 0
19.9155 0 0
20.0125 0 0
20.0125 0 0
20.1094 0 0
20.1094 0 0
20.2063 0 0
20.2063 0 0
20.3032 0 0
20.3032 0 0
20.4001 0 0
20.4001 0 0
20.4971 0 0
20.4971 0 0
20.594 0 0
20.594 0 0
20.6909 0 0
20.6909 0 0
20.7878 0 0
20.7878 0 0
20.8848 0 0
20.8848 0 0
20.9817 0 0
20.9817 0 0
21.0786 0 0
21.0786 0 0
21.1755 0 0
21.1755 0 0
21.2725 0 0
21.2725 0 0
21.3694 0 0
21.3694 0 0
21.4663 0 0
21.4663 0 0
21.5632 0 0
21.5632 0 0
21.6602 0 0
21.6602 0 0
21.7571 0 0
21.7571 0 0
21.854 0 0
21.854 0 0
21.9509 0 0
21.9509 0 0
22.0479 0 0
22.0479 0 0
22.1448 0 0
22.1448 0 0
22.2417 0 0
22.2417 0 0
22.3386 0 0
22.3386 0 0
22.4355 0 0
22.4355 0 0
22.5325 0 0
22.5325 0 0
22.6294 0 0
22.6294 0 0
22.7263 0 0
22.7263 0 0
22.8232 0 0
22.8232 0 0
22.9202 0 0
22.9202 0 0
23.0171 0 0
23.0171 0 0
23.114 0 0
23.114 0 0
23.2109 0 0
23.2109 0 0
23.3079 0 0
23.3079 0 0
23.4048 0 0
23.4048 0 0
23.5017 0 0
23.5017 0 0
23.5986 0 0
23.5986 0 0
23.6956 0 0
23.6956 0 0
23.7925 0 0
23.7925 0 0
23.8894 0 0
23.8894 0 0
23.9863 0 0
23.9863 0 0
24.0833 0 0
24.0833 0 0
24.1802 0 0
24.1802 0 0
24.2771 0 0
24.2771 0 0
24.374 0 0
24.374 0 0
24.4709 0 0
24.4709 0 0
24.5679 0 0
24.5679 0 0
24.6648 0 0
24.6648 0 0
24.7617 0 0
24.7617 0 0
24.8586 0 0
24.8586 0 0
24.9556 0 0
24.9556 0 0
25.0525 0 0
25.0525 0 0
25.1494 0 0
25.1494 0 0
25.2463 0 0
25.2463 0 0
25.3433 0 0
25.3433 0 0
25.4402 0 0
25.4402 0 0
25.5371 0 0
25.5371 0 0
25.634 0 0
25.634 0 0
25.731 0 0
25.731 0 0
25.8279 0 0
25.8279 0 0
25.9248 0 0
25.9248 0 0
26.0217 0 0
26.0217 0 0
26.1187 0 0
26.1187 0 0
26.2156 0 0
26.2156 0 0
26.3125 0 0
26.3125 0 0
26.4094 0 0
26.4094 0 0
26.5063 0 0
26.5063 0 0
26.6033 0 0
26.6033 0 0
26.7002 0 0
26.7002 0 0
26.7971 0 0
26.7971 0 0
26.894 0 0
26.894 0 0
26.991 0 0
26.991 0 0
27.0879 0 0
27.0879 0 0
27.1848 0 0
27.1848 0 0
27.2817 0 0
27.2817 0 0
27.3787 0 0
27.3787 0 0
27.4756 0 0
27.4756 0 0
27.5725 0 0
27.5725 0 0
27.6694 0 0
27.6694 0 0
27.7664 0 0
27.7664 0 0
27.8633 0 0
27.8633 0 0
27.9602 0 0
27.9602 0 0
28.0571 0 0
28.0571 0 0
28.1541 0 0
28.1541 0 0
28.251 0 0
28.251 0 0
28.3479 0 0
28.3479 0 0
28.4448 0 0
28.4448 0 0
28.5417 0 0
28.5417 0 0
28.6387 0 0
28.6387 0 0
28.7356 0 0
28.7356 0 0
28.8325 0 0
28.8325 0 0
28.9294 0 0
28.9294 0 0
29.0264 0 0
29.0264 0 0
29.1233 0 0
29.1233 0 0
29.2202 0 0
29.2202 0 0
29.3171 0 0
29.3171 0 0
29.4141 0 0
29.4141 0 0
29.511 0 0
29.511 0 0
29.6079 0 0
29.6079 0 0
29.7048 0 0
29.7048 0 0
29.8018 0 0
29.8018 0 0
29.8987 0 0
29.8987 0 0
29.9956 0 0
29.9956 0 0
30.0925 0 0
30.0925 0 0
30.1895 0 0
30.1895 0 0
30.2864 0 0
30.2864 0 0
30.3833 0 0
30.3833 0 0
30.4802 0 0
30.4802 0 0
30.5771 0 0
30.5771 0 0
30.6741 0 0
30.6741 0 0
30.771 0 0
30.771 0 0
30.8679 0 0
30.8679 0 0
30.9648 0 0
30.9648 0 0
31.0618 0 0
31.0618 0 0
31.1587 0 0
31.1587 0 0
31.2556 0 0
31.2556 0 0
31.3525 0 0
31.3525 0 0
31.4495 0 0
31.4495 0 0
31.5464 0 0
31.5464 0 0
31.6433 0 0
31.6433 0 0
31.7402 0 0
31.7402 0 0
31.8372 0 0
31.8372 0 0
31.9341 0 0
31.9341 0 0
32.031 0 0
32.031 0 0
32.1279 0 0
32.1279 0 0
32.2249 0 0
32.2249 0 0
32.3218 0 0
32.3218 0 0
32.4187 0 0
32.4187 0 0
32.5156 0 0
32.5156 0 0
32.6125 0 0
32.6125 0 0
32.7095 0 0
32.7095 0 0
32.8064 0 0
32.8064 0 0
32.9033 0 0
32.9033 0 0
33.0002 0 0
33.0002 0 0
33.0972 0 0
33.0972 0 0
33.1941 0 0
33.1941 0 0
33.291 0 0
33.291 0 0
33.3879 0 0
33.3879 0 0
33.4849 0 0
33.4849 0 0
33.5818 0 0
33.5818 0 0
33.6787 0 0
33.6787 0 0
33.7756 0 0
33.7756 0 0
33.8726 0 0
33.8726 0 0
33.9695 0 0
33.9695 0 0
34.0664 0 0
34.0664 0 0
34.1633 0 0
34.1633 0 0
34.2603 0 0
34.2603 0 0
34.3572 0 0
34.3572 0 0
34.4541 0 0
34.4541 0 0
34.551 0 0
34.551 0 0
34.6479 0 0
34.6479 0 0
34.7449 0 0
34.7449 0 0
34.8418 0 0
34.8418 0 0
34.9387 0 0
34.9387 0 0
35.0356 0 0
35.0356 0 0
35.1326 0 0
35.1326 0 0
35.2295 0 0
35.2295 0 0
35.3264 0 0
35.3264 0 0
35.4233 0 0
35.4233 0 0
35.5203 0 0
35.5203 0 0
35.6172 0 0
35.6172 0 0
35.7141 0 0
35.7141 0 0
35.811 0 0
35.811 0 0
35.908 0 0
35.908 0 0
36.0049 0 0
36.0049 0 0
36.1018 0 0
36.1018 0 0
36.1987 0 0
36.1987 0 0
36.2957 0 0
36.2957 0 0
36.3926 0 0
36.3926 0 0
36.4895 0 0
36.4895 0 0
36.5864 0 0
36.5864 0 0
36.6833 0 0
36.6833 0 0
36.7803 0 0
36.7803 0 0
36.8772 0 0
36.8772 0 0
36.9741 0 0
36.9741 0 0
37.071 0 0
37.071 0 0
37.168 0 0
37.168 0 0
37.2649 0 0
37.2649 0 0
37.3618 0 0
37.3618 0 0
37.4587 0 0
37.4587 0 0
37.5557 0 0
37.5557 0 0
37.6526 0 0
37.6526 0 0
37.7495 0 0
37.7495 0 0
37.8464 0 0
37.8464 0 0
37.9434 0 0
37.9434 0 0
38.0403 0 0
38.0403 0 0
38.1372 0 0
38.1372 0 0
38.2341 0 0
38.2341 0 0
38.3311 0 0
38.3311 0 0
38.428 0 0
38.428 0 0
38.5249 0 0
38.5249 0 0
38.6218 0 0
38.6218 0 0
38.7188 0 0
38.7188 0 0
38.8157 0 0
38.8157 0 0
38.9126 0 0
38.9126 0 0
39.0095 0 0
39.0095 0 0
39.1064 0 0
39.1064 0 0
39.2034 0 0
39.2034 0 0
39.3003 0 0
39.3003 0 0
39.3972 0 0
39.3972 0 0
39.4941 0 0
39.4941 0 0
39.5911 0 0
39.5911 0 0
39.688 0 0
39.688 0 0
39.7849 0 0
39.7849 0 0
39.8818 0 0
39.8818 0 0
39.9788 0 0
39.9788 0 0
40.0757 0 0
40.0757 0 0
40.1726 0 0
40.1726 0 0
40.2695 0 0
40.2695 0 0
40.3665 0 0
40.3665 0 0
40.4634 0 0
40.4634 0 0
40.5603 0 0
40.5603 0 0
40.6572 0 0
40.6572 0 0
40.7542 0 0
40.7542 0 0
40.8511 0 0
40.8511 0 0
40.948 0 0
40.948 0 0
41.0449 0 0
41.0449 0 0
41.1418 0 0
41.1418 0 0
41.2388 0 0
41.2388 0 0
41.3357 0 0
41.3357 0 0
41.4326 0 0
41.4326 0 0
41.5295 0 0
41.5295 0 0
[...]
POINT_DATA 4096
SCALARS solution_0 double 1
LOOKUP_TABLE default
1.87354e+14 1.83472e+14 1.83472e+14 1.80199e+14 1.80199e+14 1.77411e+14 1.77411e+14 1.75014e+14 1.75014e+14 1.72935e+14 1.72935e+14 1.71115e+14 1.71115e+14 1.69508e+14 1.69508e+14 1.68078e+14 1.68078e+14 1.66796e+14 1.66796e+14 1.65637e+14 1.65637e+14 1.6458e+14 1.6458e+14 1.63611e+14 1.63611e+14 1.62714e+14 1.62714e+14 1.61879e+14 1.61879e+14 1.61096e+14 1.61096e+14 1.60357e+14 1.60357e+14 1.59655e+14 1.59655e+14 1.58984e+14 1.58984e+14 1.5834e+14 1.5834e+14 1.57718e+14 1.57718e+14 1.57114e+14 1.57114e+14 1.56526e+14 1.56526e+14 1.55951e+14 1.55951e+14 1.55386e+14 1.55386e+14 1.5483e+14 1.5483e+14 1.5428e+14 1.5428e+14 1.53736e+14 1.53736e+14 1.53197e+14 1.53197e+14 1.5266e+14 1.5266e+14 1.52125e+14 1.52125e+14 1.51592e+14 1.51592e+14 1.51059e+14 1.51059e+14 1.50526e+14 1.50526e+14 1.49993e+14 1.49993e+14 1.49459e+14 1.49459e+14 1.48924e+14 1.48924e+14 1.48387e+14 1.48387e+14 1.47848e+14 1.47848e+14 1.47308e+14 1.47308e+14 1.46765e+14 1.46765e+14 1.46221e+14 1.46221e+14 1.45674e+14 1.45674e+14 1.45124e+14 1.45124e+14 1.44572e+14 1.44572e+14 1.44018e+14 1.44018e+14 1.43461e+14 1.43461e+14 1.42901e+14 1.42901e+14 1.4234e+14 1.4234e+14 1.41775e+14 1.41775e+14 1.41209e+14 1.41209e+14 1.4064e+14 1.4064e+14 1.40069e+14 1.40069e+14 1.39496e+14 1.39496e+14 1.38921e+14 1.38921e+14 1.38343e+14 1.38343e+14 1.37764e+14 1.37764e+14 1.37183e+14 1.37183e+14 1.366e+14 1.366e+14 1.36015e+14 1.36015e+14 1.35429e+14 1.35429e+14 1.34842e+14 1.34842e+14 1.34253e+14 1.34253e+14 1.33663e+14 1.33663e+14 1.33071e+14 1.33071e+14 1.32479e+14 1.32479e+14 1.31885e+14 1.31885e+14 1.31291e+14 1.31291e+14 1.30695e+14 1.30695e+14 1.30099e+14 1.30099e+14 1.29503e+14 1.29503e+14 1.28906e+14 1.28906e+14 1.28308e+14 1.28308e+14 1.2771e+14 1.2771e+14 1.27112e+14 1.27112e+14 1.26513e+14 1.26513e+14 1.25915e+14 1.25915e+14 1.25316e+14 1.25316e+14 1.24718e+14 1.24718e+14 1.24119e+14 1.24119e+14 1.23521e+14 1.23521e+14 1.22923e+14 1.22923e+14 1.22326e+14 1.22326e+14 1.21729e+14 1.21729e+14 1.21132e+14 1.21132e+14 1.20536e+14 1.20536e+14 1.19941e+14 1.19941e+14 1.19346e+14 1.19346e+14 1.18752e+14 1.18752e+14 1.18159e+14 1.18159e+14 1.17567e+14 1.17567e+14 1.16976e+14 1.16976e+14 1.16385e+14 1.16385e+14 1.15796e+14 1.15796e+14 1.15208e+14 1.15208e+14 1.14621e+14 1.14621e+14 1.14035e+14 1.14035e+14 1.13451e+14 1.13451e+14 1.12868e+14 1.12868e+14 1.12286e+14 1.12286e+14 1.11706e+14 1.11706e+14 1.11127e+14 1.11127e+14 1.1055e+14 1.1055e+14 1.09974e+14 1.09974e+14 1.094e+14 1.094e+14 1.08827e+14 1.08827e+14 1.08256e+14 1.08256e+14 1.07687e+14 1.07687e+14 1.07119e+14 1.07119e+14 1.06553e+14 1.06553e+14 1.05989e+14 1.05989e+14 1.05427e+14 1.05427e+14 1.04866e+14 1.04866e+14 1.04308e+14 1.04308e+14 1.03751e+14 1.03751e+14 1.03197e+14 1.03197e+14 1.02644e+14 1.02644e+14 1.02093e+14 1.02093e+14 1.01544e+14 1.01544e+14 1.00998e+14 1.00998e+14 1.00453e+14 1.00453e+14 9.99104e+13 9.99104e+13 9.93698e+13 9.93698e+13 9.88314e+13 9.88314e+13 9.82951e+13 9.82951e+13 9.7761e+13 9.7761e+13 9.7229e+13 9.7229e+13 9.66992e+13 9.66992e+13 9.61715e+13 9.61715e+13 9.56461e+13 9.56461e+13 9.51229e+13 9.51229e+13 9.46019e+13 9.46019e+13 9.40832e+13 9.40832e+13 9.35667e+13 9.35667e+13 9.30524e+13 9.30524e+13 9.25405e+13 9.25405e+13 9.20308e+13 9.20308e+13 9.15234e+13 9.15234e+13 9.10183e+13 9.10183e+13 9.05156e+13 9.05156e+13 9.00151e+13 9.00151e+13 8.95169e+13 8.95169e+13 8.90211e+13 8.90211e+13 8.85276e+13 8.85276e+13 8.80365e+13 8.80365e+13 8.75476e+13 8.75476e+13 8.70612e+13 8.70612e+13 8.6577e+13 8.6577e+13 8.60953e+13 8.60953e+13 8.56158e+13 8.56158e+13 8.51388e+13 8.51388e+13 8.4664e+13 8.4664e+13 8.41917e+13 8.41917e+13 8.37217e+13 8.37217e+13 8.3254e+13 8.3254e+13 8.27887e+13 8.27887e+13 8.23258e+13 8.23258e+13 8.18652e+13 8.18652e+13 8.1407e+13 8.1407e+13 8.09511e+13 8.09511e+13 8.04976e+13 8.04976e+13 8.00465e+13 8.00465e+13 7.95976e+13 7.95976e+13 7.91512e+13 7.91512e+13 7.8707e+13 7.8707e+13 7.82652e+13 7.82652e+13 7.78258e+13 7.78258e+13 7.73887e+13 7.73887e+13 7.69539e+13 7.69539e+13 7.65214e+13 7.65214e+13 7.60912e+13 7.60912e+13 7.56634e+13 7.56634e+13 7.52379e+13 7.52379e+13 7.48146e+13 7.48146e+13 7.43937e+13 7.43937e+13 7.39751e+13 7.39751e+13 7.35587e+13 7.35587e+13 7.31447e+13 7.31447e+13 7.27329e+13 7.27329e+13 7.23234e+13 7.23234e+13 7.19161e+13 7.19161e+13 7.15111e+13 7.15111e+13 7.11083e+13 7.11083e+13 7.07078e+13 7.07078e+13 7.03096e+13 7.03096e+13 6.99135e+13 6.99135e+13 6.95197e+13 6.95197e+13 6.91281e+13 6.91281e+13 6.87387e+13 6.87387e+13 6.83514e+13 6.83514e+13 6.79664e+13 6.79664e+13 6.75836e+13 6.75836e+13 6.72029e+13 6.72029e+13 6.68244e+13 6.68244e+13 6.64481e+13 6.64481e+13 6.60739e+13 6.60739e+13 6.57018e+13 6.57018e+13 6.53319e+13 6.53319e+13 6.49641e+13 6.49641e+13 6.45984e+13 6.45984e+13 6.42348e+13 6.42348e+13 6.38733e+13 6.38733e+13 6.35139e+13 6.35139e+13 6.31566e+13 6.31566e+13 6.28013e+13 6.28013e+13 6.24481e+13 6.24481e+13 6.2097e+13 6.2097e+13 6.17479e+13 6.17479e+13 6.14008e+13 6.14008e+13 6.10558e+13 6.10558e+13 6.07128e+13 6.07128e+13 6.03717e+13 6.03717e+13 6.00327e+13 6.00327e+13 5.96956e+13 5.96956e+13 5.93606e+13 5.93606e+13 5.90275e+13 5.90275e+13 5.86963e+13 5.86963e+13 5.83671e+13 5.83671e+13 5.80398e+13 5.80398e+13 5.77145e+13 5.77145e+13 5.73911e+13 5.73911e+13 5.70696e+13 5.70696e+13 5.67499e+13 5.67499e+13 5.64322e+13 5.64322e+13 5.61164e+13 5.61164e+13 5.58024e+13 5.58024e+13 5.54903e+13 5.54903e+13 5.518e+13 5.518e+13 5.48716e+13 5.48716e+13 5.4565e+13 5.4565e+13 5.42602e+13 5.42602e+13 5.39572e+13 5.39572e+13 5.3656e+13 5.3656e+13 5.33567e+13 5.33567e+13 5.30591e+13 5.30591e+13 5.27632e+13 5.27632e+13 5.24692e+13 5.24692e+13 5.21769e+13 5.21769e+13 5.18863e+13 5.18863e+13 5.15974e+13 5.15974e+13 5.13103e+13 5.13103e+13 5.10249e+13 5.10249e+13 5.07412e+13 5.07412e+13 5.04592e+13 5.04592e+13 5.01789e+13 5.01789e+13 4.99003e+13 4.99003e+13 4.96233e+13 4.96233e+13 4.93479e+13 4.93479e+13 4.90743e+13 4.90743e+13 4.88022e+13 4.88022e+13 4.85318e+13 4.85318e+13 4.8263e+13 4.8263e+13 4.79958e+13 4.79958e+13 4.77302e+13 4.77302e+13 4.74662e+13 4.74662e+13 4.72038e+13 4.72038e+13 4.69429e+13 4.69429e+13 4.66836e+13 4.66836e+13 4.64259e+13 4.64259e+13 4.61696e+13 4.61696e+13 4.5915e+13 4.5915e+13 4.56618e+13 4.56618e+13 4.54102e+13 4.54102e+13 4.51601e+13 4.51601e+13 4.49114e+13 4.49114e+13 4.46643e+13 4.46643e+13 4.44186e+13 4.44186e+13 4.41744e+13 4.41744e+13 4.39317e+13 4.39317e+13 4.36904e+13 4.36904e+13 4.34506e+13 4.34506e+13 4.32122e+13 4.32122e+13 4.29752e+13 4.29752e+13 4.27396e+13 4.27396e+13 4.25054e+13 4.25054e+13 4.22727e+13 4.22727e+13 4.20413e+13 4.20413e+13 4.18113e+13 4.18113e+13 4.15827e+13 4.15827e+13 4.13554e+13 4.13554e+13 4.11295e+13 4.11295e+13 4.0905e+13 4.0905e+13 4.06818e+13 4.06818e+13 4.04599e+13 4.04599e+13 4.02393e+13 4.02393e+13 4.00201e+13 4.00201e+13 3.98021e+13 3.98021e+13 3.95855e+13 3.95855e+13 3.93701e+13 3.93701e+13 3.91561e+13 3.91561e+13 3.89432e+13 3.89432e+13 3.87317e+13 3.87317e+13 3.85214e+13 3.85214e+13 3.83124e+13 3.83124e+13 3.81046e+13 3.81046e+13 3.7898e+13 3.7898e+13 3.76927e+13 3.76927e+13 3.74886e+13 3.74886e+13 3.72857e+13 3.72857e+13 3.7084e+13 3.7084e+13 3.68834e+13 3.68834e+13 3.66841e+13 3.66841e+13 3.6486e+13 3.6486e+13 3.6289e+13 3.6289e+13 3.60932e+13 3.60932e+13 3.58985e+13 3.58985e+13 3.5705e+13 3.5705e+13 3.55126e+13 3.55126e+13 3.53214e+13 3.53214e+13 3.51313e+13 3.51313e+13 3.49423e+13 3.49423e+13 3.47544e+13 3.47544e+13 3.45676e+13 3.45676e+13 3.43819e+13 3.43819e+13 3.41973e+13 3.41973e+13 3.40138e+13 3.40138e+13 3.38314e+13 3.38314e+13 3.365e+13 3.365e+13 3.34697e+13 3.34697e+13 3.32905e+13 3.32905e+13 3.31123e+13 3.31123e+13 3.29351e+13 3.29351e+13 3.2759e+13 3.2759e+13 3.25839e+13 3.25839e+13 3.24099e+13 3.24099e+13 3.22368e+13 3.22368e+13 3.20648e+13 3.20648e+13 3.18937e+13 3.18937e+13 3.17237e+13 3.17237e+13 3.15546e+13 3.15546e+13 3.13865e+13 3.13865e+13 3.12194e+13 3.12194e+13 3.10533e+13 3.10533e+13 3.08881e+13 3.08881e+13 3.07239e+13 3.07239e+13 3.05606e+13 3.05606e+13 3.03983e+13 3.03983e+13 3.02369e+13 3.02369e+13 3.00765e+13 3.00765e+13 2.9917e+13 2.9917e+13 2.97584e+13 2.97584e+13 2.96007e+13 2.96007e+13 2.94439e+13 2.94439e+13 2.9288e+13 2.9288e+13 2.9133e+13 2.9133e+13 2.89789e+13 2.89789e+13 2.88257e+13 2.88257e+13 2.86734e+13 2.86734e+13 2.85219e+13 2.85219e+13 2.83713e+13 2.83713e+13 2.82216e+13 2.82216e+13 2.80727e+13 2.80727e+13 2.79247e+13 2.79247e+13 2.77775e+13 2.77775e+13 2.76312e+13 2.76312e+13 2.74856e+13 2.74856e+13 2.7341e+13 2.7341e+13 2.71971e+13 2.71971e+13 2.70541e+13 2.70541e+13 2.69118e+13 2.69118e+13 2.67704e+13 2.67704e+13 2.66298e+13 2.66298e+13 2.64899e+13 2.64899e+13 2.63509e+13 2.63509e+13 2.62126e+13 2.62126e+13 2.60752e+13 2.60752e+13 2.59385e+13 2.59385e+13 2.58025e+13 2.58025e+13 2.56674e+13 2.56674e+13 2.5533e+13 2.5533e+13 2.53993e+13 2.53993e+13 2.52664e+13 2.52664e+13 2.51343e+13 2.51343e+13 2.50029e+13 2.50029e+13 2.48722e+13 2.48722e+13 2.47422e+13 2.47422e+13 2.4613e+13 2.4613e+13 2.44845e+13 2.44845e+13 2.43567e+13 2.43567e+13 2.42297e+13 2.42297e+13 2.41033e+13 2.41033e+13 2.39776e+13 2.39776e+13 2.38527e+13 2.38527e+13 2.37284e+13 2.37284e+13 2.36048e+13 2.36048e+13 2.34819e+13 2.34819e+13 2.33597e+13 2.33597e+13 2.32382e+13 2.32382e+13 2.31173e+13 2.31173e+13 2.29971e+13 2.29971e+13 2.28776e+13 2.28776e+13 2.27587e+13 2.27587e+13 2.26404e+13 2.26404e+13 2.25229e+13 2.25229e+13 2.24059e+13 2.24059e+13 2.22896e+13 2.22896e+13 2.2174e+13 2.2174e+13 2.20589e+13 2.20589e+13 2.19446e+13 2.19446e+13 2.18308e+13 2.18308e+13 2.17176e+13 2.17176e+13 2.16051e+13 2.16051e+13 2.14932e+13 2.14932e+13 2.13819e+13 2.13819e+13 2.12712e+13 2.12712e+13 2.1161e+13 2.1161e+13 2.10515e+13 2.10515e+13 2.09426e+13 2.09426e+13 2.08343e+13 2.08343e+13 2.07265e+13 2.07265e+13 2.06194e+13 2.06194e+13 2.05128e+13 2.05128e+13 2.04068e+13 2.04068e+13 2.03014e+13 2.03014e+13 2.01965e+13 2.01965e+13 2.00922e+13 2.00922e+13 1.99884e+13 1.99884e+13 1.98852e+13 1.98852e+13 1.97826e+13 1.97826e+13 1.96805e+13 1.96805e+13 1.9579e+13 1.9579e+13 1.94779e+13 1.94779e+13 1.93775e+13 1.93775e+13 1.92775e+13 1.92775e+13 1.91781e+13 1.91781e+13 1.90793e+13 1.90793e+13 1.89809e+13 1.89809e+13 1.88831e+13 1.88831e+13 1.87858e+13 1.87858e+13 1.8689e+13 1.8689e+13 1.85927e+13 1.85927e+13 1.84969e+13 1.84969e+13 1.84017e+13 1.84017e+13 1.83069e+13 1.83069e+13 1.82126e+13 1.82126e+13 1.81189e+13 1.81189e+13 1.80256e+13 1.80256e+13 1.79328e+13 1.79328e+13 1.78405e+13 1.78405e+13 1.77487e+13 1.77487e+13 1.76573e+13 1.76573e+13 1.75665e+13 1.75665e+13 1.74761e+13 1.74761e+13 1.73861e+13 1.73861e+13 1.72967e+13 1.72967e+13 1.72077e+13 1.72077e+13 1.71192e+13 1.71192e+13 1.70311e+13 1.70311e+13 1.69435e+13 1.69435e+13 1.68563e+13 1.68563e+13 1.67696e+13 1.67696e+13 1.66834e+13 1.66834e+13 1.65976e+13 1.65976e+13 1.65122e+13 1.65122e+13 1.64273e+13 1.64273e+13 1.63428e+13 1.63428e+13 1.62587e+13 1.62587e+13 1.61751e+13 1.61751e+13 1.60919e+13 1.60919e+13 1.60091e+13 1.60091e+13 1.59267e+13 1.59267e+13 1.58448e+13 1.58448e+13 1.57633e+13 1.57633e+13 1.56822e+13 1.56822e+13 1.56015e+13 1.56015e+13 1.55212e+13 1.55212e+13 1.54413e+13 1.54413e+13 1.53619e+13 1.53619e+13 1.52828e+13 1.52828e+13 1.52041e+13 1.52041e+13 1.51259e+13 1.51259e+13 1.5048e+13 1.5048e+13 1.49705e+13 1.49705e+13 1.48934e+13 1.48934e+13 1.48167e+13 1.48167e+13 1.47404e+13 1.47404e+13 1.46645e+13 1.46645e+13 1.4589e+13 1.4589e+13 1.45138e+13 1.45138e+13 1.4439e+13 1.4439e+13 1.43646e+13 1.43646e+13 1.42905e+13 1.42905e+13 1.42168e+13 1.42168e+13 1.41435e+13 1.41435e+13 1.40706e+13 1.40706e+13 1.3998e+13 1.3998e+13 1.39258e+13 1.39258e+13 1.38539e+13 1.38539e+13 1.37824e+13 1.37824e+13 1.37112e+13 1.37112e+13 1.36404e+13 1.36404e+13 1.35699e+13 1.35699e+13 1.34998e+13 1.34998e+13 1.34301e+13 1.34301e+13 1.33607e+13 1.33607e+13 1.32916e+13 1.32916e+13 1.32228e+13 1.32228e+13 1.31544e+13 1.31544e+13 1.30864e+13 1.30864e+13 1.30186e+13 1.30186e+13 1.29512e+13 1.29512e+13 1.28841e+13 1.28841e+13 1.28174e+13 1.28174e+13 1.2751e+13 1.2751e+13 1.26849e+13 1.26849e+13 1.26191e+13 1.26191e+13 1.25536e+13 1.25536e+13 1.24885e+13 1.24885e+13 1.24236e+13 1.24236e+13 1.23591e+13 1.23591e+13 1.22949e+13 1.22949e+13 1.2231e+13 1.2231e+13 1.21674e+13 1.21674e+13 1.21042e+13 1.21042e+13 1.20412e+13 1.20412e+13 1.19785e+13 1.19785e+13 1.19161e+13 1.19161e+13 1.18541e+13 1.18541e+13 1.17923e+13 1.17923e+13 1.17308e+13 1.17308e+13 1.16696e+13 1.16696e+13 1.16087e+13 1.16087e+13 1.15481e+13 1.15481e+13 1.14878e+13 1.14878e+13 1.14278e+13 1.14278e+13 1.1368e+13 1.1368e+13 1.13085e+13 1.13085e+13 1.12494e+13 1.12494e+13 1.11905e+13 1.11905e+13 1.11318e+13 1.11318e+13 1.10735e+13 1.10735e+13 1.10154e+13 1.10154e+13 1.09576e+13 1.09576e+13 1.09001e+13 1.09001e+13 1.08429e+13 1.08429e+13 1.07859e+13 1.07859e+13 1.07291e+13 1.07291e+13 1.06727e+13 1.06727e+13 1.06165e+13 1.06165e+13 1.05606e+13 1.05606e+13 1.05049e+13 1.05049e+13 1.04495e+13 1.04495e+13 1.03944e+13 1.03944e+13 1.03395e+13 1.03395e+13 1.02848e+13 1.02848e+13 1.02305e+13 1.02305e+13 1.01763e+13 1.01763e+13 1.01225e+13 1.01225e+13 1.00688e+13 1.00688e+13 1.00154e+13 1.00154e+13 9.96231e+12 9.96231e+12 9.90942e+12 9.90942e+12 9.85677e+12 9.85677e+12 9.80437e+12 9.80437e+12 9.75221e+12 9.75221e+12 9.70028e+12 9.70028e+12 9.6486e+12 9.6486e+12 9.59715e+12 9.59715e+12 9.54594e+12 9.54594e+12 9.49496e+12 9.49496e+12 9.44421e+12 9.44421e+12 9.3937e+12 9.3937e+12 9.34342e+12 9.34342e+12 9.29336e+12 9.29336e+12 9.24353e+12 9.24353e+12 9.19393e+12 9.19393e+12 9.14455e+12 9.14455e+12 9.0954e+12 9.0954e+12 9.04647e+12 9.04647e+12 8.99776e+12 8.99776e+12 8.94927e+12 8.94927e+12 8.901e+12 8.901e+12 8.85295e+12 8.85295e+12 8.80511e+12 8.80511e+12 8.75749e+12 8.75749e+12 8.71009e+12 8.71009e+12 8.66289e+12 8.66289e+12 8.61591e+12 8.61591e+12 8.56913e+12 8.56913e+12 8.52257e+12 8.52257e+12 8.47622e+12 8.47622e+12 8.43007e+12 8.43007e+12 8.38412e+12 8.38412e+12 8.33839e+12 8.33839e+12 8.29285e+12 8.29285e+12 8.24752e+12 8.24752e+12 8.20239e+12 8.20239e+12 8.15746e+12 8.15746e+12 8.11272e+12 8.11272e+12 8.06819e+12 8.06819e+12 8.02385e+12 8.02385e+12 7.97971e+12 7.97971e+12 7.93576e+12 7.93576e+12 7.89201e+12 7.89201e+12 7.84845e+12 7.84845e+12 7.80508e+12 7.80508e+12 7.7619e+12 7.7619e+12 7.71891e+12 7.71891e+12 7.67611e+12 7.67611e+12 7.63349e+12 7.63349e+12 7.59106e+12 7.59106e+12 7.54882e+12 7.54882e+12 7.50676e+12 7.50676e+12 7.46489e+12 7.46489e+12 7.4232e+12 7.4232e+12 7.38169e+12 7.38169e+12 7.34036e+12 7.34036e+12 7.2992e+12 7.2992e+12 7.25823e+12 7.25823e+12 7.21744e+12 7.21744e+12 7.17682e+12 7.17682e+12 7.13637e+12 7.13637e+12 7.0961e+12 7.0961e+12 7.05601e+12 7.05601e+12 7.01609e+12 7.01609e+12 6.97634e+12 6.97634e+12 6.93676e+12 6.93676e+12 6.89735e+12 6.89735e+12 6.85811e+12 6.85811e+12 6.81903e+12 6.81903e+12 6.78013e+12 6.78013e+12 6.74139e+12 6.74139e+12 6.70282e+12 6.70282e+12 6.66441e+12 6.66441e+12 6.62616e+12 6.62616e+12 6.58808e+12 6.58808e+12 6.55016e+12 6.55016e+12 6.5124e+12 6.5124e+12 6.4748e+12 6.4748e+12 6.43736e+12 6.43736e+12 6.40008e+12 6.40008e+12 6.36296e+12 6.36296e+12 6.326e+12 6.326e+12 6.28919e+12 6.28919e+12 6.25253e+12 6.25253e+12 6.21603e+12 6.21603e+12 6.17969e+12 6.17969e+12 6.14349e+12 6.14349e+12 6.10745e+12 6.10745e+12 6.07156e+12 6.07156e+12 6.03583e+12 6.03583e+12 6.00024e+12 6.00024e+12 5.9648e+12 5.9648e+12 5.9295e+12 5.9295e+12 5.89436e+12 5.89436e+12 5.85936e+12 5.85936e+12 5.82451e+12 5.82451e+12 5.7898e+12 5.7898e+12 5.75524e+12 5.75524e+12 5.72082e+12 5.72082e+12 5.68655e+12 5.68655e+12 5.65241e+12 5.65241e+12 5.61842e+12 5.61842e+12 5.58457e+12 5.58457e+12 5.55086e+12 5.55086e+12 5.51729e+12 5.51729e+12 5.48385e+12 5.48385e+12 5.45056e+12 5.45056e+12 5.4174e+12 5.4174e+12 5.38438e+12 5.38438e+12 5.35149e+12 5.35149e+12 5.31874e+12 5.31874e+12 5.28613e+12 5.28613e+12 5.25364e+12 5.25364e+12 5.22129e+12 5.22129e+12 5.18908e+12 5.18908e+12 5.15699e+12 5.15699e+12 5.12504e+12 5.12504e+12 5.09321e+12 5.09321e+12 5.06152e+12 5.06152e+12 5.02995e+12 5.02995e+12 4.99851e+12 4.99851e+12 4.96721e+12 4.96721e+12 4.93602e+12 4.93602e+12 4.90497e+12 4.90497e+12 4.87404e+12 4.87404e+12 4.84323e+12 4.84323e+12 4.81255e+12 4.81255e+12 4.782e+12 4.782e+12 4.75156e+12 4.75156e+12 4.72125e+12 4.72125e+12 4.69107e+12 4.69107e+12 4.661e+12 4.661e+12 4.63106e+12 4.63106e+12 4.60123e+12 4.60123e+12 4.57153e+12 4.57153e+12 4.54194e+12 4.54194e+12 4.51247e+12 4.51247e+12 4.48312e+12 4.48312e+12 4.45389e+12 4.45389e+12 4.42477e+12 4.42477e+12 4.39578e+12 4.39578e+12 4.36689e+12 4.36689e+12 4.33812e+12 4.33812e+12 4.30947e+12 4.30947e+12 4.28093e+12 4.28093e+12 4.2525e+12 4.2525e+12 4.22419e+12 4.22419e+12 4.19599e+12 4.19599e+12 4.1679e+12 4.1679e+12 4.13992e+12 4.13992e+12 4.11205e+12 4.11205e+12 4.08429e+12 4.08429e+12 4.05665e+12 4.05665e+12 4.02911e+12 4.02911e+12 4.00168e+12 4.00168e+12 3.97435e+12 3.97435e+12 3.94714e+12 3.94714e+12 3.92003e+12 3.92003e+12 3.89303e+12 3.89303e+12 3.86613e+12 3.86613e+12 3.83934e+12 3.83934e+12 3.81266e+12 3.81266e+12 3.78608e+12 3.78608e+12 3.7596e+12 3.7596e+12 3.73323e+12 3.73323e+12 3.70696e+12 3.70696e+12 3.68079e+12 3.68079e+12 3.65472e+12 3.65472e+12 3.62876e+12 3.62876e+12 3.60289e+12 3.60289e+12 3.57713e+12 3.57713e+12 3.55146e+12 3.55146e+12 3.5259e+12 3.5259e+12 3.50043e+12 3.50043e+12 3.47507e+12 3.47507e+12 3.4498e+12 3.4498e+12 3.42463e+12 3.42463e+12 3.39956e+12 3.39956e+12 3.37458e+12 3.37458e+12 3.3497e+12 3.3497e+12 3.32491e+12 3.32491e+12 3.30022e+12 3.30022e+12 3.27563e+12 3.27563e+12 3.25113e+12 3.25113e+12 3.22672e+12 3.22672e+12 3.20241e+12 3.20241e+12 3.17819e+12 3.17819e+12 3.15406e+12 3.15406e+12 3.13003e+12 3.13003e+12 3.10609e+12 3.10609e+12 3.08224e+12 3.08224e+12 3.05848e+12 3.05848e+12 3.03481e+12 3.03481e+12 3.01123e+12 3.01123e+12 2.98774e+12 2.98774e+12 2.96434e+12 2.96434e+12 2.94103e+12 2.94103e+12 2.9178e+12 2.9178e+12 2.89467e+12 2.89467e+12 2.87162e+12 2.87162e+12 2.84866e+12 2.84866e+12 2.82579e+12 2.82579e+12 2.803e+12 2.803e+12 2.7803e+12 2.7803e+12 2.75768e+12 2.75768e+12 2.73515e+12 2.73515e+12 2.71271e+12 2.71271e+12 2.69035e+12 2.69035e+12 2.66807e+12 2.66807e+12 2.64588e+12 2.64588e+12 2.62377e+12 2.62377e+12 2.60174e+12 2.60174e+12 2.5798e+12 2.5798e+12 2.55794e+12 2.55794e+12 2.53616e+12 2.53616e+12 2.51446e+12 2.51446e+12 2.49284e+12 2.49284e+12 2.47131e+12 2.47131e+12 2.44985e+12 2.44985e+12 2.42847e+12 2.42847e+12 2.40718e+12 2.40718e+12 2.38596e+12 2.38596e+12 2.36482e+12 2.36482e+12 2.34376e+12 2.34376e+12 2.32278e+12 2.32278e+12 2.30187e+12 2.30187e+12 2.28105e+12 2.28105e+12 2.2603e+12 2.2603e+12 2.23962e+12 2.23962e+12 2.21903e+12 2.21903e+12 2.19851e+12 2.19851e+12 2.17806e+12 2.17806e+12 2.15769e+12 2.15769e+12 2.1374e+12 2.1374e+12 2.11718e+12 2.11718e+12 2.09704e+12 2.09704e+12 2.07697e+12 2.07697e+12 2.05697e+12 2.05697e+12 2.03705e+12 2.03705e+12 2.0172e+12 2.0172e+12 1.99742e+12 1.99742e+12 1.97771e+12 1.97771e+12 1.95808e+12 1.95808e+12 1.93852e+12 1.93852e+12 1.91903e+12 1.91903e+12 1.89961e+12 1.89961e+12 1.88026e+12 1.88026e+12 1.86099e+12 1.86099e+12 1.84178e+12 1.84178e+12 1.82264e+12 1.82264e+12 1.80357e+12 1.80357e+12 1.78458e+12 1.78458e+12 1.76565e+12 1.76565e+12 1.74679e+12 1.74679e+12 1.728e+12 1.728e+12 1.70927e+12 1.70927e+12 1.69062e+12 1.69062e+12 1.67203e+12 1.67203e+12 1.65351e+12 1.65351e+12 1.63505e+12 1.63505e+12 1.61666e+12 1.61666e+12 1.59834e+12 1.59834e+12 1.58009e+12 1.58009e+12 1.5619e+12 1.5619e+12 1.54378e+12 1.54378e+12 1.52572e+12 1.52572e+12 1.50772e+12 1.50772e+12 1.48979e+12 1.48979e+12 1.47193e+12 1.47193e+12 1.45413e+12 1.45413e+12 1.43639e+12 1.43639e+12 1.41872e+12 1.41872e+12 1.40111e+12 1.40111e+12 1.38356e+12 1.38356e+12 1.36608e+12 1.36608e+12 1.34866e+12 1.34866e+12 1.3313e+12 1.3313e+12 1.314e+12 1.314e+12 1.29676e+12 1.29676e+12 1.27959e+12 1.27959e+12 1.26247e+12 1.26247e+12 1.24542e+12 1.24542e+12 1.22843e+12 1.22843e+12 1.2115e+12 1.2115e+12 1.19463e+12 1.19463e+12 1.17782e+12 1.17782e+12 1.16106e+12 1.16106e+12 1.14437e+12 1.14437e+12 1