# vtk DataFile Version 3.0
#This file was generated by the deal.II library on 2020/9/6 at 2:47:48
ASCII
DATASET UNSTRUCTURED_GRID

POINTS 4096 double
1.5 0 0
1.59692 0 0
1.59692 0 0
1.69385 0 0
1.69385 0 0
1.79077 0 0
1.79077 0 0
1.8877 0 0
1.8877 0 0
1.98462 0 0
1.98462 0 0
2.08154 0 0
2.08154 0 0
2.17847 0 0
2.17847 0 0
2.27539 0 0
2.27539 0 0
2.37231 0 0
2.37231 0 0
2.46924 0 0
2.46924 0 0
2.56616 0 0
2.56616 0 0
2.66309 0 0
2.66309 0 0
2.76001 0 0
2.76001 0 0
2.85693 0 0
2.85693 0 0
2.95386 0 0
2.95386 0 0
3.05078 0 0
3.05078 0 0
3.14771 0 0
3.14771 0 0
3.24463 0 0
3.24463 0 0
3.34155 0 0
3.34155 0 0
3.43848 0 0
3.43848 0 0
3.5354 0 0
3.5354 0 0
3.63232 0 0
3.63232 0 0
3.72925 0 0
3.72925 0 0
3.82617 0 0
3.82617 0 0
3.9231 0 0
3.9231 0 0
4.02002 0 0
4.02002 0 0
4.11694 0 0
4.11694 0 0
4.21387 0 0
4.21387 0 0
4.31079 0 0
4.31079 0 0
4.40771 0 0
4.40771 0 0
4.50464 0 0
4.50464 0 0
4.60156 0 0
4.60156 0 0
4.69849 0 0
4.69849 0 0
4.79541 0 0
4.79541 0 0
4.89233 0 0
4.89233 0 0
4.98926 0 0
4.98926 0 0
5.08618 0 0
5.08618 0 0
5.18311 0 0
5.18311 0 0
5.28003 0 0
5.28003 0 0
5.37695 0 0
5.37695 0 0
5.47388 0 0
5.47388 0 0
5.5708 0 0
5.5708 0 0
5.66772 0 0
5.66772 0 0
5.76465 0 0
5.76465 0 0
5.86157 0 0
5.86157 0 0
5.9585 0 0
5.9585 0 0
6.05542 0 0
6.05542 0 0
6.15234 0 0
6.15234 0 0
6.24927 0 0
6.24927 0 0
6.34619 0 0
6.34619 0 0
6.44312 0 0
6.44312 0 0
6.54004 0 0
6.54004 0 0
6.63696 0 0
6.63696 0 0
6.73389 0 0
6.73389 0 0
6.83081 0 0
6.83081 0 0
6.92773 0 0
6.92773 0 0
7.02466 0 0
7.02466 0 0
7.12158 0 0
7.12158 0 0
7.21851 0 0
7.21851 0 0
7.31543 0 0
7.31543 0 0
7.41235 0 0
7.41235 0 0
7.50928 0 0
7.50928 0 0
7.6062 0 0
7.6062 0 0
7.70312 0 0
7.70312 0 0
7.80005 0 0
7.80005 0 0
7.89697 0 0
7.89697 0 0
7.9939 0 0
7.9939 0 0
8.09082 0 0
8.09082 0 0
8.18774 0 0
8.18774 0 0
8.28467 0 0
8.28467 0 0
8.38159 0 0
8.38159 0 0
8.47852 0 0
8.47852 0 0
8.57544 0 0
8.57544 0 0
8.67236 0 0
8.67236 0 0
8.76929 0 0
8.76929 0 0
8.86621 0 0
8.86621 0 0
8.96313 0 0
8.96313 0 0
9.06006 0 0
9.06006 0 0
9.15698 0 0
9.15698 0 0
9.25391 0 0
9.25391 0 0
9.35083 0 0
9.35083 0 0
9.44775 0 0
9.44775 0 0
9.54468 0 0
9.54468 0 0
9.6416 0 0
9.6416 0 0
9.73853 0 0
9.73853 0 0
9.83545 0 0
9.83545 0 0
9.93237 0 0
9.93237 0 0
10.0293 0 0
10.0293 0 0
10.1262 0 0
10.1262 0 0
10.2231 0 0
10.2231 0 0
10.3201 0 0
10.3201 0 0
10.417 0 0
10.417 0 0
10.5139 0 0
10.5139 0 0
10.6108 0 0
10.6108 0 0
10.7078 0 0
10.7078 0 0
10.8047 0 0
10.8047 0 0
10.9016 0 0
10.9016 0 0
10.9985 0 0
10.9985 0 0
11.0955 0 0
11.0955 0 0
11.1924 0 0
11.1924 0 0
11.2893 0 0
11.2893 0 0
11.3862 0 0
11.3862 0 0
11.4832 0 0
11.4832 0 0
11.5801 0 0
11.5801 0 0
11.677 0 0
11.677 0 0
11.7739 0 0
11.7739 0 0
11.8708 0 0
11.8708 0 0
11.9678 0 0
11.9678 0 0
12.0647 0 0
12.0647 0 0
12.1616 0 0
12.1616 0 0
12.2585 0 0
12.2585 0 0
12.3555 0 0
12.3555 0 0
12.4524 0 0
12.4524 0 0
12.5493 0 0
12.5493 0 0
12.6462 0 0
12.6462 0 0
12.7432 0 0
12.7432 0 0
12.8401 0 0
12.8401 0 0
12.937 0 0
12.937 0 0
13.0339 0 0
13.0339 0 0
13.1309 0 0
13.1309 0 0
13.2278 0 0
13.2278 0 0
13.3247 0 0
13.3247 0 0
13.4216 0 0
13.4216 0 0
13.5186 0 0
13.5186 0 0
13.6155 0 0
13.6155 0 0
13.7124 0 0
13.7124 0 0
13.8093 0 0
13.8093 0 0
13.9062 0 0
13.9062 0 0
14.0032 0 0
14.0032 0 0
14.1001 0 0
14.1001 0 0
14.197 0 0
14.197 0 0
14.2939 0 0
14.2939 0 0
14.3909 0 0
14.3909 0 0
14.4878 0 0
14.4878 0 0
14.5847 0 0
14.5847 0 0
14.6816 0 0
14.6816 0 0
14.7786 0 0
14.7786 0 0
14.8755 0 0
14.8755 0 0
14.9724 0 0
14.9724 0 0
15.0693 0 0
15.0693 0 0
15.1663 0 0
15.1663 0 0
15.2632 0 0
15.2632 0 0
15.3601 0 0
15.3601 0 0
15.457 0 0
15.457 0 0
15.554 0 0
15.554 0 0
15.6509 0 0
15.6509 0 0
15.7478 0 0
15.7478 0 0
15.8447 0 0
15.8447 0 0
15.9417 0 0
15.9417 0 0
16.0386 0 0
16.0386 0 0
16.1355 0 0
16.1355 0 0
16.2324 0 0
16.2324 0 0
16.3293 0 0
16.3293 0 0
16.4263 0 0
16.4263 0 0
16.5232 0 0
16.5232 0 0
16.6201 0 0
16.6201 0 0
16.717 0 0
16.717 0 0
16.814 0 0
16.814 0 0
16.9109 0 0
16.9109 0 0
17.0078 0 0
17.0078 0 0
17.1047 0 0
17.1047 0 0
17.2017 0 0
17.2017 0 0
17.2986 0 0
17.2986 0 0
17.3955 0 0
17.3955 0 0
17.4924 0 0
17.4924 0 0
17.5894 0 0
17.5894 0 0
17.6863 0 0
17.6863 0 0
17.7832 0 0
17.7832 0 0
17.8801 0 0
17.8801 0 0
17.9771 0 0
17.9771 0 0
18.074 0 0
18.074 0 0
18.1709 0 0
18.1709 0 0
18.2678 0 0
18.2678 0 0
18.3647 0 0
18.3647 0 0
18.4617 0 0
18.4617 0 0
18.5586 0 0
18.5586 0 0
18.6555 0 0
18.6555 0 0
18.7524 0 0
18.7524 0 0
18.8494 0 0
18.8494 0 0
18.9463 0 0
18.9463 0 0
19.0432 0 0
19.0432 0 0
19.1401 0 0
19.1401 0 0
19.2371 0 0
19.2371 0 0
19.334 0 0
19.334 0 0
19.4309 0 0
19.4309 0 0
19.5278 0 0
19.5278 0 0
19.6248 0 0
19.6248 0 0
19.7217 0 0
19.7217 0 0
19.8186 0 0
19.8186 0 0
19.9155 0 0
19.9155 0 0
20.0125 0 0
20.0125 0 0
20.1094 0 0
20.1094 0 0
20.2063 0 0
20.2063 0 0
20.3032 0 0
20.3032 0 0
20.4001 0 0
20.4001 0 0
20.4971 0 0
20.4971 0 0
20.594 0 0
20.594 0 0
20.6909 0 0
20.6909 0 0
20.7878 0 0
20.7878 0 0
20.8848 0 0
20.8848 0 0
20.9817 0 0
20.9817 0 0
21.0786 0 0
21.0786 0 0
21.1755 0 0
21.1755 0 0
21.2725 0 0
21.2725 0 0
21.3694 0 0
21.3694 0 0
21.4663 0 0
21.4663 0 0
21.5632 0 0
21.5632 0 0
21.6602 0 0
21.6602 0 0
21.7571 0 0
21.7571 0 0
21.854 0 0
21.854 0 0
21.9509 0 0
21.9509 0 0
22.0479 0 0
22.0479 0 0
22.1448 0 0
22.1448 0 0
22.2417 0 0
22.2417 0 0
22.3386 0 0
22.3386 0 0
22.4355 0 0
22.4355 0 0
22.5325 0 0
22.5325 0 0
22.6294 0 0
22.6294 0 0
22.7263 0 0
22.7263 0 0
22.8232 0 0
22.8232 0 0
22.9202 0 0
22.9202 0 0
23.0171 0 0
23.0171 0 0
23.114 0 0
23.114 0 0
23.2109 0 0
23.2109 0 0
23.3079 0 0
23.3079 0 0
23.4048 0 0
23.4048 0 0
23.5017 0 0
23.5017 0 0
23.5986 0 0
23.5986 0 0
23.6956 0 0
23.6956 0 0
23.7925 0 0
23.7925 0 0
23.8894 0 0
23.8894 0 0
23.9863 0 0
23.9863 0 0
24.0833 0 0
24.0833 0 0
24.1802 0 0
24.1802 0 0
24.2771 0 0
24.2771 0 0
24.374 0 0
24.374 0 0
24.4709 0 0
24.4709 0 0
24.5679 0 0
24.5679 0 0
24.6648 0 0
24.6648 0 0
24.7617 0 0
24.7617 0 0
24.8586 0 0
24.8586 0 0
24.9556 0 0
24.9556 0 0
25.0525 0 0
25.0525 0 0
25.1494 0 0
25.1494 0 0
25.2463 0 0
25.2463 0 0
25.3433 0 0
25.3433 0 0
25.4402 0 0
25.4402 0 0
25.5371 0 0
25.5371 0 0
25.634 0 0
25.634 0 0
25.731 0 0
25.731 0 0
25.8279 0 0
25.8279 0 0
25.9248 0 0
25.9248 0 0
26.0217 0 0
26.0217 0 0
26.1187 0 0
26.1187 0 0
26.2156 0 0
26.2156 0 0
26.3125 0 0
26.3125 0 0
26.4094 0 0
26.4094 0 0
26.5063 0 0
26.5063 0 0
26.6033 0 0
26.6033 0 0
26.7002 0 0
26.7002 0 0
26.7971 0 0
26.7971 0 0
26.894 0 0
26.894 0 0
26.991 0 0
26.991 0 0
27.0879 0 0
27.0879 0 0
27.1848 0 0
27.1848 0 0
27.2817 0 0
27.2817 0 0
27.3787 0 0
27.3787 0 0
27.4756 0 0
27.4756 0 0
27.5725 0 0
27.5725 0 0
27.6694 0 0
27.6694 0 0
27.7664 0 0
27.7664 0 0
27.8633 0 0
27.8633 0 0
27.9602 0 0
27.9602 0 0
28.0571 0 0
28.0571 0 0
28.1541 0 0
28.1541 0 0
28.251 0 0
28.251 0 0
28.3479 0 0
28.3479 0 0
28.4448 0 0
28.4448 0 0
28.5417 0 0
28.5417 0 0
28.6387 0 0
28.6387 0 0
28.7356 0 0
28.7356 0 0
28.8325 0 0
28.8325 0 0
28.9294 0 0
28.9294 0 0
29.0264 0 0
29.0264 0 0
29.1233 0 0
29.1233 0 0
29.2202 0 0
29.2202 0 0
29.3171 0 0
29.3171 0 0
29.4141 0 0
29.4141 0 0
29.511 0 0
29.511 0 0
29.6079 0 0
29.6079 0 0
29.7048 0 0
29.7048 0 0
29.8018 0 0
29.8018 0 0
29.8987 0 0
29.8987 0 0
29.9956 0 0
29.9956 0 0
30.0925 0 0
30.0925 0 0
30.1895 0 0
30.1895 0 0
30.2864 0 0
30.2864 0 0
30.3833 0 0
30.3833 0 0
30.4802 0 0
30.4802 0 0
30.5771 0 0
30.5771 0 0
30.6741 0 0
30.6741 0 0
30.771 0 0
30.771 0 0
30.8679 0 0
30.8679 0 0
30.9648 0 0
30.9648 0 0
31.0618 0 0
31.0618 0 0
31.1587 0 0
31.1587 0 0
31.2556 0 0
31.2556 0 0
31.3525 0 0
31.3525 0 0
31.4495 0 0
31.4495 0 0
31.5464 0 0
31.5464 0 0
31.6433 0 0
31.6433 0 0
31.7402 0 0
31.7402 0 0
31.8372 0 0
31.8372 0 0
31.9341 0 0
31.9341 0 0
32.031 0 0
32.031 0 0
32.1279 0 0
32.1279 0 0
32.2249 0 0
32.2249 0 0
32.3218 0 0
32.3218 0 0
32.4187 0 0
32.4187 0 0
32.5156 0 0
32.5156 0 0
32.6125 0 0
32.6125 0 0
32.7095 0 0
32.7095 0 0
32.8064 0 0
32.8064 0 0
32.9033 0 0
32.9033 0 0
33.0002 0 0
33.0002 0 0
33.0972 0 0
33.0972 0 0
33.1941 0 0
33.1941 0 0
33.291 0 0
33.291 0 0
33.3879 0 0
33.3879 0 0
33.4849 0 0
33.4849 0 0
33.5818 0 0
33.5818 0 0
33.6787 0 0
33.6787 0 0
33.7756 0 0
33.7756 0 0
33.8726 0 0
33.8726 0 0
33.9695 0 0
33.9695 0 0
34.0664 0 0
34.0664 0 0
34.1633 0 0
34.1633 0 0
34.2603 0 0
34.2603 0 0
34.3572 0 0
34.3572 0 0
34.4541 0 0
34.4541 0 0
34.551 0 0
34.551 0 0
34.6479 0 0
34.6479 0 0
34.7449 0 0
34.7449 0 0
34.8418 0 0
34.8418 0 0
34.9387 0 0
34.9387 0 0
35.0356 0 0
35.0356 0 0
35.1326 0 0
35.1326 0 0
35.2295 0 0
35.2295 0 0
35.3264 0 0
35.3264 0 0
35.4233 0 0
35.4233 0 0
35.5203 0 0
35.5203 0 0
35.6172 0 0
35.6172 0 0
35.7141 0 0
35.7141 0 0
35.811 0 0
35.811 0 0
35.908 0 0
35.908 0 0
36.0049 0 0
36.0049 0 0
36.1018 0 0
36.1018 0 0
36.1987 0 0
36.1987 0 0
36.2957 0 0
36.2957 0 0
36.3926 0 0
36.3926 0 0
36.4895 0 0
36.4895 0 0
36.5864 0 0
36.5864 0 0
36.6833 0 0
36.6833 0 0
36.7803 0 0
36.7803 0 0
36.8772 0 0
36.8772 0 0
36.9741 0 0
36.9741 0 0
37.071 0 0
37.071 0 0
37.168 0 0
37.168 0 0
37.2649 0 0
37.2649 0 0
37.3618 0 0
37.3618 0 0
37.4587 0 0
37.4587 0 0
37.5557 0 0
37.5557 0 0
37.6526 0 0
37.6526 0 0
37.7495 0 0
37.7495 0 0
37.8464 0 0
37.8464 0 0
37.9434 0 0
37.9434 0 0
38.0403 0 0
38.0403 0 0
38.1372 0 0
38.1372 0 0
38.2341 0 0
38.2341 0 0
38.3311 0 0
38.3311 0 0
38.428 0 0
38.428 0 0
38.5249 0 0
38.5249 0 0
38.6218 0 0
38.6218 0 0
38.7188 0 0
38.7188 0 0
38.8157 0 0
38.8157 0 0
38.9126 0 0
38.9126 0 0
39.0095 0 0
39.0095 0 0
39.1064 0 0
39.1064 0 0
39.2034 0 0
39.2034 0 0
39.3003 0 0
39.3003 0 0
39.3972 0 0
39.3972 0 0
39.4941 0 0
39.4941 0 0
39.5911 0 0
39.5911 0 0
39.688 0 0
39.688 0 0
39.7849 0 0
39.7849 0 0
39.8818 0 0
39.8818 0 0
39.9788 0 0
39.9788 0 0
40.0757 0 0
40.0757 0 0
40.1726 0 0
40.1726 0 0
40.2695 0 0
40.2695 0 0
40.3665 0 0
40.3665 0 0
40.4634 0 0
40.4634 0 0
40.5603 0 0
40.5603 0 0
40.6572 0 0
40.6572 0 0
40.7542 0 0
40.7542 0 0
40.8511 0 0
40.8511 0 0
40.948 0 0
40.948 0 0
41.0449 0 0
41.0449 0 0
41.1418 0 0
41.1418 0 0
41.2388 0 0
41.2388 0 0
41.3357 0 0
41.3357 0 0
41.4326 0 0
41.4326 0 0
41.5295 0 0
41.5295 0 0
[...]
POINT_DATA 4096
SCALARS solution_0 double 1
LOOKUP_TABLE default
19.9593 19.536 19.536 19.176 19.176 18.8666 18.8666 18.5981 18.5981 18.363 18.363 18.1553 18.1553 17.9704 17.9704 17.8043 17.8043 17.654 17.654 17.517 17.517 17.3911 17.3911 17.2747 17.2747 17.1663 17.1663 17.0647 17.0647 16.9689 16.9689 16.878 16.878 16.7914 16.7914 16.7083 16.7083 16.6283 16.6283 16.5509 16.5509 16.4758 16.4758 16.4025 16.4025 16.3308 16.3308 16.2604 16.2604 16.1912 16.1912 16.1229 16.1229 16.0554 16.0554 15.9885 15.9885 15.9222 15.9222 15.8563 15.8563 15.7906 15.7906 15.7253 15.7253 15.6601 15.6601 15.595 15.595 15.53 15.53 15.465 15.465 15.4 15.4 15.335 15.335 15.2699 15.2699 15.2048 15.2048 15.1395 15.1395 15.0742 15.0742 15.0088 15.0088 14.9432 14.9432 14.8776 14.8776 14.8118 14.8118 14.7459 14.7459 14.68 14.68 14.6139 14.6139 14.5477 14.5477 14.4815 14.4815 14.4152 14.4152 14.3488 14.3488 14.2823 14.2823 14.2158 14.2158 14.1492 14.1492 14.0825 14.0825 14.0157 14.0157 13.9489 13.9489 13.8819 13.8819 13.8148 13.8148 13.7476 13.7476 13.6803 13.6803 13.6127 13.6127 13.545 13.545 13.477 13.477 13.4088 13.4088 13.3404 13.3404 13.2717 13.2717 13.2027 13.2027 13.1334 13.1334 13.0638 13.0638 12.9939 12.9939 12.9237 12.9237 12.8531 12.8531 12.7823 12.7823 12.7113 12.7113 12.6399 12.6399 12.5684 12.5684 12.4966 12.4966 12.4247 12.4247 12.3527 12.3527 12.2806 12.2806 12.2084 12.2084 12.1362 12.1362 12.0641 12.0641 11.9921 11.9921 11.9202 11.9202 11.8485 11.8485 11.777 11.777 11.7057 11.7057 11.6348 11.6348 11.5641 11.5641 11.4938 11.4938 11.4237 11.4237 11.3539 11.3539 11.2841 11.2841 11.2142 11.2142 11.1437 11.1437 11.0722 11.0722 10.9988 10.9988 10.9225 10.9225 10.8421 10.8421 10.756 10.756 10.6625 10.6625 10.5595 10.5595 10.4453 10.4453 10.3185 10.3185 10.178 10.178 10.0239 10.0239 9.85745 9.85745 9.6813 9.6813 9.49943 9.49943 9.31702 9.31702 9.13999 9.13999 8.97431 8.97431 8.82529 8.82529 8.69684 8.69684 8.59094 8.59094 8.50747 8.50747 8.44438 8.44438 8.39834 8.39834 8.36553 8.36553 8.34257 8.34257 8.32724 8.32724 8.31892 8.31892 8.3185 8.3185 8.32804 8.32804 8.35013 8.35013 8.3873 8.3873 8.44155 8.44155 8.51419 8.51419 8.60587 8.60587 8.71685 8.71685 8.84717 8.84717 8.9968 8.9968 9.16557 9.16557 9.35312 9.35312 9.55862 9.55862 9.78073 9.78073 10.0175 10.0175 10.2664 10.2664 10.5243 10.5243 10.7878 10.7878 11.053 11.053 11.3156 11.3156 11.5711 11.5711 11.8149 11.8149 12.042 12.042 12.2477 12.2477 12.4275 12.4275 12.5771 12.5771 12.6927 12.6927 12.7712 12.7712 12.8101 12.8101 12.8077 12.8077 12.7631 12.7631 12.6764 12.6764 12.5484 12.5484 12.381 12.381 12.1767 12.1767 11.9389 11.9389 11.6714 11.6714 11.3786 11.3786 11.0653 11.0653 10.7365 10.7365 10.3972 10.3972 10.0522 10.0522 9.70633 9.70633 9.36387 9.36387 9.02878 9.02878 8.70447 8.70447 8.39382 8.39382 8.09912 8.09912 7.82207 7.82207 7.56382 7.56382 7.32498 7.32498 7.10568 7.10568 6.90564 6.90564 6.72422 6.72422 6.56047 6.56047 6.41327 6.41327 6.28132 6.28132 6.16324 6.16324 6.0576 6.0576 5.96301 5.96301 5.8781 5.8781 5.80158 5.80158 5.73226 5.73226 5.66907 5.66907 5.61104 5.61104 5.55732 5.55732 5.50718 5.50718 5.45998 5.45998 5.4152 5.4152 5.3724 5.3724 5.33121 5.33121 5.29135 5.29135 5.25258 5.25258 5.21471 5.21471 5.17759 5.17759 5.14112 5.14112 5.1052 5.1052 5.06976 5.06976 5.03477 5.03477 5.00017 5.00017 4.96594 4.96594 4.93205 4.93205 4.8985 4.8985 4.86526 4.86526 4.83234 4.83234 4.79971 4.79971 4.76738 4.76738 4.73534 4.73534 4.70358 4.70358 4.6721 4.6721 4.6409 4.6409 4.60997 4.60997 4.57932 4.57932 4.54893 4.54893 4.5188 4.5188 4.48894 4.48894 4.45933 4.45933 4.42998 4.42998 4.40088 4.40088 4.37203 4.37203 4.34342 4.34342 4.31507 4.31507 4.28695 4.28695 4.25907 4.25907 4.23143 4.23143 4.20402 4.20402 4.17684 4.17684 4.14989 4.14989 4.12316 4.12316 4.09666 4.09666 4.07038 4.07038 4.04432 4.04432 4.01847 4.01847 3.99284 3.99284 3.96742 3.96742 3.94221 3.94221 3.91721 3.91721 3.89241 3.89241 3.86781 3.86781 3.84342 3.84342 3.81922 3.81922 3.79522 3.79522 3.77141 3.77141 3.7478 3.7478 3.72437 3.72437 3.70113 3.70113 3.67808 3.67808 3.65521 3.65521 3.63253 3.63253 3.61002 3.61002 3.5877 3.5877 3.56555 3.56555 3.54357 3.54357 3.52177 3.52177 3.50013 3.50013 3.47867 3.47867 3.45737 3.45737 3.43624 3.43624 3.41528 3.41528 3.39447 3.39447 3.37383 3.37383 3.35334 3.35334 3.33302 3.33302 3.31284 3.31284 3.29283 3.29283 3.27296 3.27296 3.25325 3.25325 3.23368 3.23368 3.21427 3.21427 3.195 3.195 3.17587 3.17587 3.15689 3.15689 3.13805 3.13805 3.11936 3.11936 3.1008 3.1008 3.08238 3.08238 3.06409 3.06409 3.04594 3.04594 3.02793 3.02793 3.01005 3.01005 2.9923 2.9923 2.97468 2.97468 2.95718 2.95718 2.93982 2.93982 2.92258 2.92258 2.90547 2.90547 2.88848 2.88848 2.87161 2.87161 2.85487 2.85487 2.83824 2.83824 2.82173 2.82173 2.80535 2.80535 2.78908 2.78908 2.77292 2.77292 2.75688 2.75688 2.74095 2.74095 2.72514 2.72514 2.70944 2.70944 2.69384 2.69384 2.67836 2.67836 2.66299 2.66299 2.64772 2.64772 2.63256 2.63256 2.6175 2.6175 2.60255 2.60255 2.58771 2.58771 2.57296 2.57296 2.55832 2.55832 2.54377 2.54377 2.52933 2.52933 2.51499 2.51499 2.50074 2.50074 2.48659 2.48659 2.47254 2.47254 2.45858 2.45858 2.44472 2.44472 2.43095 2.43095 2.41727 2.41727 2.40368 2.40368 2.39019 2.39019 2.37678 2.37678 2.36347 2.36347 2.35024 2.35024 2.3371 2.3371 2.32405 2.32405 2.31109 2.31109 2.29821 2.29821 2.28541 2.28541 2.2727 2.2727 2.26008 2.26008 2.24753 2.24753 2.23507 2.23507 2.22269 2.22269 2.21039 2.21039 2.19817 2.19817 2.18602 2.18602 2.17396 2.17396 2.16197 2.16197 2.15006 2.15006 2.13823 2.13823 2.12648 2.12648 2.11479 2.11479 2.10319 2.10319 2.09165 2.09165 2.08019 2.08019 2.06881 2.06881 2.05749 2.05749 2.04625 2.04625 2.03507 2.03507 2.02397 2.02397 2.01294 2.01294 2.00197 2.00197 1.99108 1.99108 1.98025 1.98025 1.96949 1.96949 1.95879 1.95879 1.94816 1.94816 1.9376 1.9376 1.92711 1.92711 1.91667 1.91667 1.90631 1.90631 1.896 1.896 1.88576 1.88576 1.87558 1.87558 1.86546 1.86546 1.85541 1.85541 1.84541 1.84541 1.83548 1.83548 1.82561 1.82561 1.81579 1.81579 1.80604 1.80604 1.79634 1.79634 1.7867 1.7867 1.77712 1.77712 1.7676 1.7676 1.75813 1.75813 1.74872 1.74872 1.73937 1.73937 1.73007 1.73007 1.72083 1.72083 1.71164 1.71164 1.7025 1.7025 1.69342 1.69342 1.68439 1.68439 1.67542 1.67542 1.6665 1.6665 1.65763 1.65763 1.64881 1.64881 1.64004 1.64004 1.63133 1.63133 1.62266 1.62266 1.61405 1.61405 1.60548 1.60548 1.59696 1.59696 1.5885 1.5885 1.58008 1.58008 1.57171 1.57171 1.56338 1.56338 1.55511 1.55511 1.54688 1.54688 1.5387 1.5387 1.53057 1.53057 1.52248 1.52248 1.51444 1.51444 1.50644 1.50644 1.49849 1.49849 1.49058 1.49058 1.48272 1.48272 1.4749 1.4749 1.46712 1.46712 1.45939 1.45939 1.45171 1.45171 1.44406 1.44406 1.43646 1.43646 1.4289 1.4289 1.42138 1.42138 1.4139 1.4139 1.40647 1.40647 1.39907 1.39907 1.39172 1.39172 1.3844 1.3844 1.37713 1.37713 1.3699 1.3699 1.3627 1.3627 1.35555 1.35555 1.34843 1.34843 1.34136 1.34136 1.33432 1.33432 1.32732 1.32732 1.32035 1.32035 1.31343 1.31343 1.30654 1.30654 1.29969 1.29969 1.29288 1.29288 1.2861 1.2861 1.27936 1.27936 1.27265 1.27265 1.26598 1.26598 1.25935 1.25935 1.25275 1.25275 1.24619 1.24619 1.23966 1.23966 1.23317 1.23317 1.22671 1.22671 1.22028 1.22028 1.21389 1.21389 1.20753 1.20753 1.20121 1.20121 1.19492 1.19492 1.18866 1.18866 1.18244 1.18244 1.17624 1.17624 1.17008 1.17008 1.16395 1.16395 1.15786 1.15786 1.15179 1.15179 1.14576 1.14576 1.13975 1.13975 1.13378 1.13378 1.12784 1.12784 1.12193 1.12193 1.11605 1.11605 1.1102 1.1102 1.10438 1.10438 1.09859 1.09859 1.09283 1.09283 1.0871 1.0871 1.0814 1.0814 1.07573 1.07573 1.07008 1.07008 1.06447 1.06447 1.05888 1.05888 1.05332 1.05332 1.04779 1.04779 1.04229 1.04229 1.03681 1.03681 1.03137 1.03137 1.02594 1.02594 1.02055 1.02055 1.01519 1.01519 1.00985 1.00985 1.00453 1.00453 0.999247 0.999247 0.993987 0.993987 0.988753 0.988753 0.983545 0.983545 0.978362 0.978362 0.973206 0.973206 0.968074 0.968074 0.962968 0.962968 0.957888 0.957888 0.952832 0.952832 0.947801 0.947801 0.942794 0.942794 0.937812 0.937812 0.932855 0.932855 0.927921 0.927921 0.923012 0.923012 0.918126 0.918126 0.913265 0.913265 0.908427 0.908427 0.903612 0.903612 0.89882 0.89882 0.894052 0.894052 0.889307 0.889307 0.884584 0.884584 0.879884 0.879884 0.875207 0.875207 0.870553 0.870553 0.86592 0.86592 0.86131 0.86131 0.856722 0.856722 0.852155 0.852155 0.847611 0.847611 0.843088 0.843088 0.838586 0.838586 0.834106 0.834106 0.829647 0.829647 0.825209 0.825209 0.820792 0.820792 0.816396 0.816396 0.812021 0.812021 0.807666 0.807666 0.803332 0.803332 0.799018 0.799018 0.794724 0.794724 0.790451 0.790451 0.786197 0.786197 0.781963 0.781963 0.777749 0.777749 0.773555 0.773555 0.76938 0.76938 0.765224 0.765224 0.761088 0.761088 0.756971 0.756971 0.752873 0.752873 0.748794 0.748794 0.744733 0.744733 0.740692 0.740692 0.736669 0.736669 0.732664 0.732664 0.728678 0.728678 0.72471 0.72471 0.72076 0.72076 0.716829 0.716829 0.712915 0.712915 0.709019 0.709019 0.705141 0.705141 0.701281 0.701281 0.697438 0.697438 0.693612 0.693612 0.689804 0.689804 0.686013 0.686013 0.682239 0.682239 0.678483 0.678483 0.674743 0.674743 0.67102 0.67102 0.667314 0.667314 0.663624 0.663624 0.659951 0.659951 0.656295 0.656295 0.652654 0.652654 0.649031 0.649031 0.645423 0.645423 0.641831 0.641831 0.638256 0.638256 0.634696 0.634696 0.631152 0.631152 0.627624 0.627624 0.624111 0.624111 0.620614 0.620614 0.617133 0.617133 0.613667 0.613667 0.610216 0.610216 0.60678 0.60678 0.60336 0.60336 0.599954 0.599954 0.596564 0.596564 0.593188 0.593188 0.589827 0.589827 0.586481 0.586481 0.583149 0.583149 0.579832 0.579832 0.57653 0.57653 0.573242 0.573242 0.569968 0.569968 0.566708 0.566708 0.563463 0.563463 0.560231 0.560231 0.557014 0.557014 0.55381 0.55381 0.550621 0.550621 0.547445 0.547445 0.544282 0.544282 0.541134 0.541134 0.537999 0.537999 0.534877 0.534877 0.531769 0.531769 0.528674 0.528674 0.525593 0.525593 0.522524 0.522524 0.519469 0.519469 0.516426 0.516426 0.513397 0.513397 0.510381 0.510381 0.507377 0.507377 0.504386 0.504386 0.501408 0.501408 0.498442 0.498442 0.495489 0.495489 0.492549 0.492549 0.489621 0.489621 0.486705 0.486705 0.483802 0.483802 0.48091 0.48091 0.478031 0.478031 0.475164 0.475164 0.472309 0.472309 0.469467 0.469467 0.466635 0.466635 0.463816 0.463816 0.461009 0.461009 0.458213 0.458213 0.455429 0.455429 0.452657 0.452657 0.449896 0.449896 0.447146 0.447146 0.444408 0.444408 0.441682 0.441682 0.438966 0.438966 0.436262 0.436262 0.433569 0.433569 0.430887 0.430887 0.428217 0.428217 0.425557 0.425557 0.422908 0.422908 0.42027 0.42027 0.417643 0.417643 0.415027 0.415027 0.412421 0.412421 0.409827 0.409827 0.407242 0.407242 0.404669 0.404669 0.402105 0.402105 0.399553 0.399553 0.39701 0.39701 0.394478 0.394478 0.391957 0.391957 0.389445 0.389445 0.386944 0.386944 0.384453 0.384453 0.381972 0.381972 0.379501 0.379501 0.37704 0.37704 0.374589 0.374589 0.372148 0.372148 0.369717 0.369717 0.367296 0.367296 0.364884 0.364884 0.362482 0.362482 0.360089 0.360089 0.357707 0.357707 0.355333 0.355333 0.35297 0.35297 0.350615 0.350615 0.348271 0.348271 0.345935 0.345935 0.343609 0.343609 0.341292 0.341292 0.338984 0.338984 0.336686 0.336686 0.334396 0.334396 0.332116 0.332116 0.329845 0.329845 0.327583 0.327583 0.325329 0.325329 0.323085 0.323085 0.320849 0.320849 0.318623 0.318623 0.316405 0.316405 0.314196 0.314196 0.311995 0.311995 0.309803 0.309803 0.30762 0.30762 0.305445 0.305445 0.303279 0.303279 0.301122 0.301122 0.298973 0.298973 0.296832 0.296832 0.294699 0.294699 0.292575 0.292575 0.290459 0.290459 0.288352 0.288352 0.286253 0.286253 0.284161 0.284161 0.282078 0.282078 0.280003 0.280003 0.277936 0.277936 0.275878 0.275878 0.273827 0.273827 0.271784 0.271784 0.269748 0.269748 0.267721 0.267721 0.265702 0.265702 0.26369 0.26369 0.261686 0.261686 0.25969 0.25969 0.257702 0.257702 0.255721 0.255721 0.253747 0.253747 0.251782 0.251782 0.249824 0.249824 0.247873 0.247873 0.24593 0.24593 0.243994 0.243994 0.242065 0.242065 0.240144 0.240144 0.238231 0.238231 0.236324 0.236324 0.234425 0.234425 0.232533 0.232533 0.230648 0.230648 0.228771 0.228771 0.2269 0.2269 0.225037 0.225037 0.22318 0.22318 0.221331 0.221331 0.219489 0.219489 0.217653 0.217653 0.215825 0.215825 0.214003 0.214003 0.212189 0.212189 0.210381 0.210381 0.20858 0.20858 0.206785 0.206785 0.204998 0.204998 0.203217 0.203217 0.201443 0.201443 0.199675 0.199675 0.197914 0.197914 0.19616 0.19616 0.194412 0.194412 0.192671 0.192671 0.190936 0.190936 0.189208 0.189208 0.187486 0.187486 0.18577 0.18577 0.184061 0.184061 0.182359 0.182359 0.180662 0.180662 0.178972 0.178972 0.177288 0.177288 0.175611 0.175611 0.173939 0.173939 0.172274 0.172274 0.170615 0.170615 0.168962 0.168962 0.167315 0.167315 0.165674 0.165674 0.16404 0.16404 0.162411 0.162411 0.160788 0.160788 0.159171 0.159171 0.15756 0.15756 0.155956 0.155956 0.154356 0.154356 0.152763 0.152763 0.151176 0.151176 0.149594 0.149594 0.148019 0.148019 0.146449 0.146449 0.144884 0.144884 0.143326 0.143326 0.141773 0.141773 0.140226 0.140226 0.138684 0.138684 0.137148 0.137148 0.135618 0.135618 0.134093 0.134093 0.132573 0.132573 0.131059 0.131059 0.129551 0.129551 0.128048 0.128048 0.126551 0.126551 0.125059 0.125059 0.123572 0.123572 0.122091 0.122091 0.120615 0.120615 0.119144 0.119144 0.117679 0.117679 0.116219 0.116219 0.114764 0.114764 0.113314 0.113314 0.11187 0.11187 0.110431 0.110431 0.108997 0.108997 0.107568 0.107568 0.106144 0.106144 0.104725 0.104725 0.103312 0.103312 0.101903 0.101903 0.1005 0.1005 0.0991013 0.0991013 0.0977077 0.0977077 0.0963192 0.0963192 0.0949355 0.0949355 0.0935568 0.0935568 0.092183 0.092183 0.0908141 0.0908141 0.0894501 0.0894501 0.0880909 0.0880909 0.0867365 0.0867365 0.0853869 0.0853869 0.084042 0.084042 0.082702 0.082702 0.0813667 0.0813667 0.0800361 0.0800361 0.0787102 0.0787102 0.077389 0.077389 0.0760724 0.0760724 0.0747605 0.0747605 0.0734532 0.0734532 0.0721505 0.0721505 0.0708524 0.0708524 0.0695588 0.0695588 0.0682698 0.0682698 0.0669853 0.0669853 0.0657053 0.0657053 0.0644299 0.0644299 0.0631588 0.0631588 0.0618923 0.0618923 0.0606301 0.0606301 0.0593724 0.0593724 0.0581191 0.0581191 0.0568701 0.0568701 0.0556255 0.0556255 0.0543853 0.0543853 0.0531493 0.0531493 0.0519177 0.0519177 0.0506904 0.0506904 0.0494673 0.0494673 0.0482485 0.0482485 0.0470339 0.0470339 0.0458236 0.0458236 0.0446174 0.0446174 0.0434154 0.0434154 0.0422176 0.0422176 0.0410239 0.0410239 0.0398344 0.0398344 0.038649 0.038649 0.0374677 0.0374677 0.0362904 0.0362904 0.0351173 0.0351173 0.0339481 0.0339481 0.032783 0.032783 0.031622 0.031622 0.0304649 0.0304649 0.0293118 0.0293118 0.0281627 0.0281627 0.0270175 0.0270175 0.0258762 0.0258762 0.0247389 0.0247389 0.0236055 0.0236055 0.022476 0.022476 0.0213503 0.0213503 0.0202285 0.0202285 0.0191105 0.0191105 0.0179964 0.0179964 0.0168861 0.0168861 0.0157795 0.0157795 0.0146768 0.0146768 0.0135778 0.0135778 0.0124826 0.0124826 0.0113911 0.0113911 0.0103033 0.0103033 0.00921921 0.00921921 0.00813882 0.00813882 0.00706211 0.00706211 0.00598906 0.00598906 0.00491965 0.00491965 0.00385388 0.00385388 0.00279172 0.00279172 0.00173317 0.00173317 0.000678208 0.000678208 -0.000373181 -0.000373181 -0.00142101 -0.00142101 -0.00246529 -0.00246529 -0.00350604 -0.00350604 -0.00454327 -0.00454327 -0.005577 -0.005577 -0.00660723 -0.00660723 -0.00763399 -0.00763399 -0.00865728 -0.00865728 -0.00967712 -0.00967712 -0.0106935 -0.0106935 -0.0117065 -0.0117065 -0.0127161 -0.0127161 -0.0137223 -0.0137223 -0.0147251 -0.0147251 -0.0157245 -0.0157245 -0.0167206 -0.0167206 -0.0177133 -0.0177133 -0.0187027 -0.0187027 -0.0196887 -0.0196887 -0.0206715 -0.0206715 -0.021651 -0.021651 -0.0226272 -0.0226272 -0.0236001 -0.0236001 -0.0245698 -0.0245698 -0.0255362 -0.0255362 -0.0264994 -0.0264994 -0.0274594 -0.0274594 -0.0284162 -0.0284162 -0.0293698 -0.0293698 -0.0303202 -0.0303202 -0.0312675 -0.0312675 -0.0322116 -0.0322116 -0.0331525 -0.0331525 -0.0340903 -0.0340903 -0.035025 -0.035025 -0.0359566 -0.0359566 -0.0368851 -0.0368851 -0.0378106 -0.0378106 -0.0387329 -0.0387329 -0.0396522 -0.0396522 -0.0405684 -0.0405684 -0.0414816 -0.0414816 -0.0423918 -0.0423918 -0.043299 -0.043299 -0.0442031 -0.0442031 -0.0451043 -0.0451043 -0.0460025 -0.0460025 -0.0468977 -0.0468977 -0.04779 -0.04779 -0.0486793 -0.0486793 -0.0495657 -0.0495657 -0.0504492 -0.0504492 -0.0513297 -0.0513297 -0.0522074 -0.0522074 -0.0530821 -0.0530821 -0.053954 -0.053954 -0.054823 -0.054823 -0.0556892 -0.0556892 -0.0565525 -0.0565525 -0.057413 -0.057413 -0.0582706 -0.0582706 -0.0591255 -0.0591255 -0.0599775 -0.0599775 -0.0608267 -0.0608267 -0.0616732 -0.0616732 -0.0625169 -0.0625169 -0.0633578 -0.0633578 -0.0641959 -0.0641959 -0.0650314 -0.0650314 -0.065864 -0.065864 -0.066694 -0.066694 -0.0675213 -0.0675213 -0.0683458 -0.0683458 -0.0691677 -0.0691677 -0.0699869 -0.0699869 -0.0708034 -0.0708034 -0.0716172 -0.0716172 -0.0724284 -0.0724284 -0.073237 -0.073237 -0.0740429 -0.0740429 -0.0748462 -0.0748462 -0.0756469 -0.0756469 -0.076445 -0.076445 -0.0772405 -0.0772405 -0.0780334 -0.0780334 -0.0788237 -0.0788237 -0.0796115 -0.0796115 -0.0803967 -0.0803967 -0.0811794 -0.0811794 -0.0819595 -0.0819595 -0.0827371 -0.0827371 -0.0835122 -0.0835122 -0.0842848 -0.0842848 -0.0850548 -0.0850548 -0.0858224 -0.0858224 -0.0865875 -0.0865875 -0.0873502 -0.0873502 -0.0881103 -0.0881103 -0.088868 -0.088868 -0.0896233 -0.0896233 -0.0903761 -0.0903761 -0.0911265 -0.0911265 -0.0918745 -0.0918745 -0.0926201 -0.0926201 -0.0933632 -0.0933632 -0.094104 -0.094104 -0.0948424 -0.0948424 -0.0955784 -0.0955784 -0.0963121 -0.0963121 -0.0970434 -0.0970434 -0.0977723 -0.0977723 -0.0984989 -0.0984989 -0.0992232 -0.0992232 -0.0999451 -0.0999451 -0.100665 -0.100665 -0.101382 -0.101382 -0.102097 -0.102097 -0.10281 -0.10281 -0.10352 -0.10352 -0.104228 -0.104228 -0.104934 -0.104934 -0.105638 -0.105638 -0.106339 -0.106339 -0.107038 -0.107038 -0.107735 -0.107735 -0.10843 -0.10843 -0.109123 -0.109123 -0.109813 -0.109813 -0.110501 -0.110501 -0.111187 -0.111187 -0.11187 -0.11187 -0.112552 -0.112552 -0.113231 -0.113231 -0.113908 -0.113908 -0.114583 -0.114583 -0.115256 -0.115256 -0.115927 -0.115927 -0.116595 -0.116595 -0.117262 -0.117262 -0.117926 -0.117926 -0.118588 -0.118588 -0.119249 -0.119249 -0.119907 -0.119907 -0.120562 -0.120562 -0.121216 -0.121216 -0.121868 -0.121868 -0.122518 -0.122518 -0.123165 -0.123165 -0.123811 -0.123811 -0.124455 -0.124455 -0.125096 -0.125096 -0.125736 -0.125736 -0.126373 -0.126373 -0.127008 -0.127008 -0.127642 -0.127642 -0.128273 -0.128273 -0.128903 -0.128903 -0.12953 -0.12953 -0.130156 -0.130156 -0.130779 -0.130779 -0.131401 -0.131401 -0.13202 -0.13202 -0.132638 -0.132638 -0.133253 -0.133253 -0.133867 -0.133867 -0.134479 -0.134479 -0.135089 -0.135089 -0.135697 -0.135697 -0.136303 -0.136303 -0.136907 -0.136907 -0.137509 -0.137509 -0.138109 -0.138109 -0.138708 -0.138708 -0.139304 -0.139304 -0.139899 -0.139899 -0.140492 -0.140492 -0.141083 -0.141083 -0.141672 -0.141672 -0.142259 -0.142259 -0.142844 -0.142844 -0.143428 -0.143428 -0.144009 -0.144009 -0.144589 -0.144589 -0.145167 -0.145167 -0.145744 -0.145744 -0.146318 -0.146318 -0.146891 -0.146891 -0.147462 -0.147462 -0.148031 -0.148031 -0.148598 -0.148598 -0.149164 -0.149164 -0.149727 -0.149727 -0.150289 -0.150289 -0.150849 -0.150849 -0.151408 -0.151408 -0.151965 -0.151965 -0.15252 -0.15252 -0.153073 -0.153073 -0.153624 -0.153624 -0.154174 -0.154174 -0.154722 -0.154722 -0.155269 -0.155269 -0.155813 -0.155813 -0.156356 -0.156356 -0.156898 -0.156898 -0.157437 -0.157437 -0.157975 -0.157975 -0.158511 -0.158511 -0.159046 -0.159046 -0.159579 -0.159579 -0.16011 -0.16011 -0.16064 -0.16064 -0.161168 -0.161168 -0.161694 -0.161694 -0.162219 -0.162219 -0.162742 -0.162742 -0.163263 -0.163263 -0.163783 -0.163783 -0.164301 -0.164301 -0.164818 -0.164818 -0.165333 -0.165333 -0.165846 -0.165846 -0.166358 -0.166358 -0.166868 -0.166868 -0.167377 -0.167377 -0.167884 -0.167884 -0.168389 -0.168389 -0.168893 -0.168893 -0.169395 -0.169395 -0.169896 -0.169896 -0.170395 -0.170395 -0.170893 -0.170893 -0.171389 -0.171389 -0.171884 -0.171884 -0.17