# vtk DataFile Version 3.0
#This file was generated by the deal.II library on 2020/9/6 at 2:55:45
ASCII
DATASET UNSTRUCTURED_GRID

POINTS 4096 double
1.5 0 0
1.59692 0 0
1.59692 0 0
1.69385 0 0
1.69385 0 0
1.79077 0 0
1.79077 0 0
1.8877 0 0
1.8877 0 0
1.98462 0 0
1.98462 0 0
2.08154 0 0
2.08154 0 0
2.17847 0 0
2.17847 0 0
2.27539 0 0
2.27539 0 0
2.37231 0 0
2.37231 0 0
2.46924 0 0
2.46924 0 0
2.56616 0 0
2.56616 0 0
2.66309 0 0
2.66309 0 0
2.76001 0 0
2.76001 0 0
2.85693 0 0
2.85693 0 0
2.95386 0 0
2.95386 0 0
3.05078 0 0
3.05078 0 0
3.14771 0 0
3.14771 0 0
3.24463 0 0
3.24463 0 0
3.34155 0 0
3.34155 0 0
3.43848 0 0
3.43848 0 0
3.5354 0 0
3.5354 0 0
3.63232 0 0
3.63232 0 0
3.72925 0 0
3.72925 0 0
3.82617 0 0
3.82617 0 0
3.9231 0 0
3.9231 0 0
4.02002 0 0
4.02002 0 0
4.11694 0 0
4.11694 0 0
4.21387 0 0
4.21387 0 0
4.31079 0 0
4.31079 0 0
4.40771 0 0
4.40771 0 0
4.50464 0 0
4.50464 0 0
4.60156 0 0
4.60156 0 0
4.69849 0 0
4.69849 0 0
4.79541 0 0
4.79541 0 0
4.89233 0 0
4.89233 0 0
4.98926 0 0
4.98926 0 0
5.08618 0 0
5.08618 0 0
5.18311 0 0
5.18311 0 0
5.28003 0 0
5.28003 0 0
5.37695 0 0
5.37695 0 0
5.47388 0 0
5.47388 0 0
5.5708 0 0
5.5708 0 0
5.66772 0 0
5.66772 0 0
5.76465 0 0
5.76465 0 0
5.86157 0 0
5.86157 0 0
5.9585 0 0
5.9585 0 0
6.05542 0 0
6.05542 0 0
6.15234 0 0
6.15234 0 0
6.24927 0 0
6.24927 0 0
6.34619 0 0
6.34619 0 0
6.44312 0 0
6.44312 0 0
6.54004 0 0
6.54004 0 0
6.63696 0 0
6.63696 0 0
6.73389 0 0
6.73389 0 0
6.83081 0 0
6.83081 0 0
6.92773 0 0
6.92773 0 0
7.02466 0 0
7.02466 0 0
7.12158 0 0
7.12158 0 0
7.21851 0 0
7.21851 0 0
7.31543 0 0
7.31543 0 0
7.41235 0 0
7.41235 0 0
7.50928 0 0
7.50928 0 0
7.6062 0 0
7.6062 0 0
7.70312 0 0
7.70312 0 0
7.80005 0 0
7.80005 0 0
7.89697 0 0
7.89697 0 0
7.9939 0 0
7.9939 0 0
8.09082 0 0
8.09082 0 0
8.18774 0 0
8.18774 0 0
8.28467 0 0
8.28467 0 0
8.38159 0 0
8.38159 0 0
8.47852 0 0
8.47852 0 0
8.57544 0 0
8.57544 0 0
8.67236 0 0
8.67236 0 0
8.76929 0 0
8.76929 0 0
8.86621 0 0
8.86621 0 0
8.96313 0 0
8.96313 0 0
9.06006 0 0
9.06006 0 0
9.15698 0 0
9.15698 0 0
9.25391 0 0
9.25391 0 0
9.35083 0 0
9.35083 0 0
9.44775 0 0
9.44775 0 0
9.54468 0 0
9.54468 0 0
9.6416 0 0
9.6416 0 0
9.73853 0 0
9.73853 0 0
9.83545 0 0
9.83545 0 0
9.93237 0 0
9.93237 0 0
10.0293 0 0
10.0293 0 0
10.1262 0 0
10.1262 0 0
10.2231 0 0
10.2231 0 0
10.3201 0 0
10.3201 0 0
10.417 0 0
10.417 0 0
10.5139 0 0
10.5139 0 0
10.6108 0 0
10.6108 0 0
10.7078 0 0
10.7078 0 0
10.8047 0 0
10.8047 0 0
10.9016 0 0
10.9016 0 0
10.9985 0 0
10.9985 0 0
11.0955 0 0
11.0955 0 0
11.1924 0 0
11.1924 0 0
11.2893 0 0
11.2893 0 0
11.3862 0 0
11.3862 0 0
11.4832 0 0
11.4832 0 0
11.5801 0 0
11.5801 0 0
11.677 0 0
11.677 0 0
11.7739 0 0
11.7739 0 0
11.8708 0 0
11.8708 0 0
11.9678 0 0
11.9678 0 0
12.0647 0 0
12.0647 0 0
12.1616 0 0
12.1616 0 0
12.2585 0 0
12.2585 0 0
12.3555 0 0
12.3555 0 0
12.4524 0 0
12.4524 0 0
12.5493 0 0
12.5493 0 0
12.6462 0 0
12.6462 0 0
12.7432 0 0
12.7432 0 0
12.8401 0 0
12.8401 0 0
12.937 0 0
12.937 0 0
13.0339 0 0
13.0339 0 0
13.1309 0 0
13.1309 0 0
13.2278 0 0
13.2278 0 0
13.3247 0 0
13.3247 0 0
13.4216 0 0
13.4216 0 0
13.5186 0 0
13.5186 0 0
13.6155 0 0
13.6155 0 0
13.7124 0 0
13.7124 0 0
13.8093 0 0
13.8093 0 0
13.9062 0 0
13.9062 0 0
14.0032 0 0
14.0032 0 0
14.1001 0 0
14.1001 0 0
14.197 0 0
14.197 0 0
14.2939 0 0
14.2939 0 0
14.3909 0 0
14.3909 0 0
14.4878 0 0
14.4878 0 0
14.5847 0 0
14.5847 0 0
14.6816 0 0
14.6816 0 0
14.7786 0 0
14.7786 0 0
14.8755 0 0
14.8755 0 0
14.9724 0 0
14.9724 0 0
15.0693 0 0
15.0693 0 0
15.1663 0 0
15.1663 0 0
15.2632 0 0
15.2632 0 0
15.3601 0 0
15.3601 0 0
15.457 0 0
15.457 0 0
15.554 0 0
15.554 0 0
15.6509 0 0
15.6509 0 0
15.7478 0 0
15.7478 0 0
15.8447 0 0
15.8447 0 0
15.9417 0 0
15.9417 0 0
16.0386 0 0
16.0386 0 0
16.1355 0 0
16.1355 0 0
16.2324 0 0
16.2324 0 0
16.3293 0 0
16.3293 0 0
16.4263 0 0
16.4263 0 0
16.5232 0 0
16.5232 0 0
16.6201 0 0
16.6201 0 0
16.717 0 0
16.717 0 0
16.814 0 0
16.814 0 0
16.9109 0 0
16.9109 0 0
17.0078 0 0
17.0078 0 0
17.1047 0 0
17.1047 0 0
17.2017 0 0
17.2017 0 0
17.2986 0 0
17.2986 0 0
17.3955 0 0
17.3955 0 0
17.4924 0 0
17.4924 0 0
17.5894 0 0
17.5894 0 0
17.6863 0 0
17.6863 0 0
17.7832 0 0
17.7832 0 0
17.8801 0 0
17.8801 0 0
17.9771 0 0
17.9771 0 0
18.074 0 0
18.074 0 0
18.1709 0 0
18.1709 0 0
18.2678 0 0
18.2678 0 0
18.3647 0 0
18.3647 0 0
18.4617 0 0
18.4617 0 0
18.5586 0 0
18.5586 0 0
18.6555 0 0
18.6555 0 0
18.7524 0 0
18.7524 0 0
18.8494 0 0
18.8494 0 0
18.9463 0 0
18.9463 0 0
19.0432 0 0
19.0432 0 0
19.1401 0 0
19.1401 0 0
19.2371 0 0
19.2371 0 0
19.334 0 0
19.334 0 0
19.4309 0 0
19.4309 0 0
19.5278 0 0
19.5278 0 0
19.6248 0 0
19.6248 0 0
19.7217 0 0
19.7217 0 0
19.8186 0 0
19.8186 0 0
19.9155 0 0
19.9155 0 0
20.0125 0 0
20.0125 0 0
20.1094 0 0
20.1094 0 0
20.2063 0 0
20.2063 0 0
20.3032 0 0
20.3032 0 0
20.4001 0 0
20.4001 0 0
20.4971 0 0
20.4971 0 0
20.594 0 0
20.594 0 0
20.6909 0 0
20.6909 0 0
20.7878 0 0
20.7878 0 0
20.8848 0 0
20.8848 0 0
20.9817 0 0
20.9817 0 0
21.0786 0 0
21.0786 0 0
21.1755 0 0
21.1755 0 0
21.2725 0 0
21.2725 0 0
21.3694 0 0
21.3694 0 0
21.4663 0 0
21.4663 0 0
21.5632 0 0
21.5632 0 0
21.6602 0 0
21.6602 0 0
21.7571 0 0
21.7571 0 0
21.854 0 0
21.854 0 0
21.9509 0 0
21.9509 0 0
22.0479 0 0
22.0479 0 0
22.1448 0 0
22.1448 0 0
22.2417 0 0
22.2417 0 0
22.3386 0 0
22.3386 0 0
22.4355 0 0
22.4355 0 0
22.5325 0 0
22.5325 0 0
22.6294 0 0
22.6294 0 0
22.7263 0 0
22.7263 0 0
22.8232 0 0
22.8232 0 0
22.9202 0 0
22.9202 0 0
23.0171 0 0
23.0171 0 0
23.114 0 0
23.114 0 0
23.2109 0 0
23.2109 0 0
23.3079 0 0
23.3079 0 0
23.4048 0 0
23.4048 0 0
23.5017 0 0
23.5017 0 0
23.5986 0 0
23.5986 0 0
23.6956 0 0
23.6956 0 0
23.7925 0 0
23.7925 0 0
23.8894 0 0
23.8894 0 0
23.9863 0 0
23.9863 0 0
24.0833 0 0
24.0833 0 0
24.1802 0 0
24.1802 0 0
24.2771 0 0
24.2771 0 0
24.374 0 0
24.374 0 0
24.4709 0 0
24.4709 0 0
24.5679 0 0
24.5679 0 0
24.6648 0 0
24.6648 0 0
24.7617 0 0
24.7617 0 0
24.8586 0 0
24.8586 0 0
24.9556 0 0
24.9556 0 0
25.0525 0 0
25.0525 0 0
25.1494 0 0
25.1494 0 0
25.2463 0 0
25.2463 0 0
25.3433 0 0
25.3433 0 0
25.4402 0 0
25.4402 0 0
25.5371 0 0
25.5371 0 0
25.634 0 0
25.634 0 0
25.731 0 0
25.731 0 0
25.8279 0 0
25.8279 0 0
25.9248 0 0
25.9248 0 0
26.0217 0 0
26.0217 0 0
26.1187 0 0
26.1187 0 0
26.2156 0 0
26.2156 0 0
26.3125 0 0
26.3125 0 0
26.4094 0 0
26.4094 0 0
26.5063 0 0
26.5063 0 0
26.6033 0 0
26.6033 0 0
26.7002 0 0
26.7002 0 0
26.7971 0 0
26.7971 0 0
26.894 0 0
26.894 0 0
26.991 0 0
26.991 0 0
27.0879 0 0
27.0879 0 0
27.1848 0 0
27.1848 0 0
27.2817 0 0
27.2817 0 0
27.3787 0 0
27.3787 0 0
27.4756 0 0
27.4756 0 0
27.5725 0 0
27.5725 0 0
27.6694 0 0
27.6694 0 0
27.7664 0 0
27.7664 0 0
27.8633 0 0
27.8633 0 0
27.9602 0 0
27.9602 0 0
28.0571 0 0
28.0571 0 0
28.1541 0 0
28.1541 0 0
28.251 0 0
28.251 0 0
28.3479 0 0
28.3479 0 0
28.4448 0 0
28.4448 0 0
28.5417 0 0
28.5417 0 0
28.6387 0 0
28.6387 0 0
28.7356 0 0
28.7356 0 0
28.8325 0 0
28.8325 0 0
28.9294 0 0
28.9294 0 0
29.0264 0 0
29.0264 0 0
29.1233 0 0
29.1233 0 0
29.2202 0 0
29.2202 0 0
29.3171 0 0
29.3171 0 0
29.4141 0 0
29.4141 0 0
29.511 0 0
29.511 0 0
29.6079 0 0
29.6079 0 0
29.7048 0 0
29.7048 0 0
29.8018 0 0
29.8018 0 0
29.8987 0 0
29.8987 0 0
29.9956 0 0
29.9956 0 0
30.0925 0 0
30.0925 0 0
30.1895 0 0
30.1895 0 0
30.2864 0 0
30.2864 0 0
30.3833 0 0
30.3833 0 0
30.4802 0 0
30.4802 0 0
30.5771 0 0
30.5771 0 0
30.6741 0 0
30.6741 0 0
30.771 0 0
30.771 0 0
30.8679 0 0
30.8679 0 0
30.9648 0 0
30.9648 0 0
31.0618 0 0
31.0618 0 0
31.1587 0 0
31.1587 0 0
31.2556 0 0
31.2556 0 0
31.3525 0 0
31.3525 0 0
31.4495 0 0
31.4495 0 0
31.5464 0 0
31.5464 0 0
31.6433 0 0
31.6433 0 0
31.7402 0 0
31.7402 0 0
31.8372 0 0
31.8372 0 0
31.9341 0 0
31.9341 0 0
32.031 0 0
32.031 0 0
32.1279 0 0
32.1279 0 0
32.2249 0 0
32.2249 0 0
32.3218 0 0
32.3218 0 0
32.4187 0 0
32.4187 0 0
32.5156 0 0
32.5156 0 0
32.6125 0 0
32.6125 0 0
32.7095 0 0
32.7095 0 0
32.8064 0 0
32.8064 0 0
32.9033 0 0
32.9033 0 0
33.0002 0 0
33.0002 0 0
33.0972 0 0
33.0972 0 0
33.1941 0 0
33.1941 0 0
33.291 0 0
33.291 0 0
33.3879 0 0
33.3879 0 0
33.4849 0 0
33.4849 0 0
33.5818 0 0
33.5818 0 0
33.6787 0 0
33.6787 0 0
33.7756 0 0
33.7756 0 0
33.8726 0 0
33.8726 0 0
33.9695 0 0
33.9695 0 0
34.0664 0 0
34.0664 0 0
34.1633 0 0
34.1633 0 0
34.2603 0 0
34.2603 0 0
34.3572 0 0
34.3572 0 0
34.4541 0 0
34.4541 0 0
34.551 0 0
34.551 0 0
34.6479 0 0
34.6479 0 0
34.7449 0 0
34.7449 0 0
34.8418 0 0
34.8418 0 0
34.9387 0 0
34.9387 0 0
35.0356 0 0
35.0356 0 0
35.1326 0 0
35.1326 0 0
35.2295 0 0
35.2295 0 0
35.3264 0 0
35.3264 0 0
35.4233 0 0
35.4233 0 0
35.5203 0 0
35.5203 0 0
35.6172 0 0
35.6172 0 0
35.7141 0 0
35.7141 0 0
35.811 0 0
35.811 0 0
35.908 0 0
35.908 0 0
36.0049 0 0
36.0049 0 0
36.1018 0 0
36.1018 0 0
36.1987 0 0
36.1987 0 0
36.2957 0 0
36.2957 0 0
36.3926 0 0
36.3926 0 0
36.4895 0 0
36.4895 0 0
36.5864 0 0
36.5864 0 0
36.6833 0 0
36.6833 0 0
36.7803 0 0
36.7803 0 0
36.8772 0 0
36.8772 0 0
36.9741 0 0
36.9741 0 0
37.071 0 0
37.071 0 0
37.168 0 0
37.168 0 0
37.2649 0 0
37.2649 0 0
37.3618 0 0
37.3618 0 0
37.4587 0 0
37.4587 0 0
37.5557 0 0
37.5557 0 0
37.6526 0 0
37.6526 0 0
37.7495 0 0
37.7495 0 0
37.8464 0 0
37.8464 0 0
37.9434 0 0
37.9434 0 0
38.0403 0 0
38.0403 0 0
38.1372 0 0
38.1372 0 0
38.2341 0 0
38.2341 0 0
38.3311 0 0
38.3311 0 0
38.428 0 0
38.428 0 0
38.5249 0 0
38.5249 0 0
38.6218 0 0
38.6218 0 0
38.7188 0 0
38.7188 0 0
38.8157 0 0
38.8157 0 0
38.9126 0 0
38.9126 0 0
39.0095 0 0
39.0095 0 0
39.1064 0 0
39.1064 0 0
39.2034 0 0
39.2034 0 0
39.3003 0 0
39.3003 0 0
39.3972 0 0
39.3972 0 0
39.4941 0 0
39.4941 0 0
39.5911 0 0
39.5911 0 0
39.688 0 0
39.688 0 0
39.7849 0 0
39.7849 0 0
39.8818 0 0
39.8818 0 0
39.9788 0 0
39.9788 0 0
40.0757 0 0
40.0757 0 0
40.1726 0 0
40.1726 0 0
40.2695 0 0
40.2695 0 0
40.3665 0 0
40.3665 0 0
40.4634 0 0
40.4634 0 0
40.5603 0 0
40.5603 0 0
40.6572 0 0
40.6572 0 0
40.7542 0 0
40.7542 0 0
40.8511 0 0
40.8511 0 0
40.948 0 0
40.948 0 0
41.0449 0 0
41.0449 0 0
41.1418 0 0
41.1418 0 0
41.2388 0 0
41.2388 0 0
41.3357 0 0
41.3357 0 0
41.4326 0 0
41.4326 0 0
41.5295 0 0
41.5295 0 0
[...]
POINT_DATA 4096
SCALARS solution_0 double 1
LOOKUP_TABLE default
505692 495214 495214 486380 486380 478856 478856 472386 472386 466773 466773 461860 461860 457523 457523 453665 453665 450203 450203 447074 447074 444222 444222 441605 441605 439184 439184 436930 436930 434817 434817 432822 432822 430927 430927 429116 429116 427377 427377 425698 425698 424069 424069 422482 422482 420929 420929 419404 419404 417903 417903 416420 416420 414951 414951 413494 413494 412045 412045 410601 410601 409162 409162 407724 407724 406286 406286 404846 404846 403405 403405 401960 401960 400511 400511 399058 399058 397599 397599 396134 396134 394664 394664 393187 393187 391704 391704 390214 390214 388717 388717 387214 387214 385704 385704 384188 384188 382665 382665 381136 381136 379600 379600 378059 378059 376512 376512 374959 374959 373400 373400 371837 371837 370268 370268 368695 368695 367117 367117 365535 365535 363949 363949 362360 362360 360767 360767 359170 359170 357571 357571 355969 355969 354364 354364 352757 352757 351149 351149 349538 349538 347926 347926 346313 346313 344699 344699 343085 343085 341469 341469 339854 339854 338238 338238 336622 336622 335007 335007 333393 333393 331779 331779 330166 330166 328554 328554 326944 326944 325335 325335 323728 323728 322123 322123 320520 320520 318919 318919 317321 317321 315725 315725 314131 314131 312541 312541 310954 310954 309370 309370 307789 307789 306211 306211 304638 304638 303067 303067 301501 301501 299939 299939 298380 298380 296826 296826 295276 295276 293730 293730 292189 292189 290652 290652 289120 289120 287593 287593 286070 286070 284553 284553 283040 283040 281533 281533 280030 280030 278533 278533 277041 277041 275554 275554 274073 274073 272598 272598 271127 271127 269663 269663 268204 268204 266751 266751 265303 265303 263861 263861 262425 262425 260995 260995 259571 259571 258153 258153 256741 256741 255334 255334 253934 253934 252540 252540 251152 251152 249770 249770 248395 248395 247025 247025 245662 245662 244305 244305 242954 242954 241609 241609 240271 240271 238939 238939 237613 237613 236294 236294 234981 234981 233674 233674 232374 232374 231080 231080 229792 229792 228511 228511 227236 227236 225967 225967 224705 224705 223449 223449 222199 222199 220956 220956 219719 219719 218489 218489 217265 217265 216047 216047 214836 214836 213631 213631 212432 212432 211239 211239 210053 210053 208873 208873 207700 207700 206532 206532 205371 205371 204217 204217 203068 203068 201926 201926 200790 200790 199660 199660 198536 198536 197418 197418 196307 196307 195201 195201 194102 194102 193009 193009 191922 191922 190841 190841 189766 189766 188697 188697 187634 187634 186577 186577 185526 185526 184481 184481 183441 183441 182408 182408 181381 181381 180359 180359 179343 179343 178333 178333 177329 177329 176331 176331 175338 175338 174351 174351 173369 173369 172394 172394 171424 171424 170459 170459 169500 169500 168547 168547 167599 167599 166657 166657 165720 165720 164789 164789 163863 163863 162942 162942 162027 162027 161118 161118 160213 160213 159314 159314 158420 158420 157532 157532 156648 156648 155770 155770 154897 154897 154030 154030 153167 153167 152309 152309 151457 151457 150609 150609 149767 149767 148929 148929 148097 148097 147269 147269 146447 146447 145629 145629 144816 144816 144008 144008 143205 143205 142406 142406 141613 141613 140824 140824 140039 140039 139260 139260 138485 138485 137714 137714 136949 136949 136188 136188 135431 135431 134679 134679 133931 133931 133188 133188 132449 132449 131715 131715 130985 130985 130260 130260 129539 129539 128822 128822 128109 128109 127401 127401 126697 126697 125997 125997 125301 125301 124610 124610 123922 123922 123239 123239 122560 122560 121885 121885 121214 121214 120547 120547 119883 119883 119224 119224 118569 118569 117918 117918 117271 117271 116627 116627 115987 115987 115352 115352 114720 114720 114091 114091 113467 113467 112846 112846 112229 112229 111616 111616 111006 111006 110400 110400 109797 109797 109198 109198 108603 108603 108011 108011 107423 107423 106838 106838 106257 106257 105679 105679 105105 105105 104534 104534 103966 103966 103402 103402 102841 102841 102284 102284 101730 101730 101179 101179 100631 100631 100087 100087 99545.4 99545.4 99007.4 99007.4 98472.6 98472.6 97940.9 97940.9 97412.4 97412.4 96887 96887 96364.6 96364.6 95845.4 95845.4 95329.3 95329.3 94816.1 94816.1 94306 94306 93798.9 93798.9 93294.8 93294.8 92793.6 92793.6 92295.4 92295.4 91800.1 91800.1 91307.7 91307.7 90818.2 90818.2 90331.6 90331.6 89847.8 89847.8 89366.8 89366.8 88888.7 88888.7 88413.3 88413.3 87940.8 87940.8 87470.9 87470.9 87003.9 87003.9 86539.5 86539.5 86077.8 86077.8 85618.9 85618.9 85162.6 85162.6 84708.9 84708.9 84257.9 84257.9 83809.5 83809.5 83363.7 83363.7 82920.5 82920.5 82479.8 82479.8 82041.7 82041.7 81606.1 81606.1 81173 81173 80742.5 80742.5 80314.4 80314.4 79888.8 79888.8 79465.6 79465.6 79044.9 79044.9 78626.6 78626.6 78210.7 78210.7 77797.1 77797.1 77386 77386 76977.2 76977.2 76570.7 76570.7 76166.6 76166.6 75764.8 75764.8 75365.2 75365.2 74968 74968 74573 74573 74180.2 74180.2 73789.7 73789.7 73401.4 73401.4 73015.4 73015.4 72631.5 72631.5 72249.8 72249.8 71870.2 71870.2 71492.8 71492.8 71117.5 71117.5 70744.4 70744.4 70373.3 70373.3 70004.4 70004.4 69637.5 69637.5 69272.7 69272.7 68909.9 68909.9 68549.2 68549.2 68190.5 68190.5 67833.8 67833.8 67479.1 67479.1 67126.5 67126.5 66775.7 66775.7 66427 66427 66080.1 66080.1 65735.2 65735.2 65392.3 65392.3 65051.2 65051.2 64712 64712 64374.8 64374.8 64039.4 64039.4 63705.8 63705.8 63374.1 63374.1 63044.2 63044.2 62716.2 62716.2 62390 62390 62065.5 62065.5 61742.9 61742.9 61422 61422 61102.9 61102.9 60785.6 60785.6 60470 60470 60156.1 60156.1 59843.9 59843.9 59533.5 59533.5 59224.7 59224.7 58917.6 58917.6 58612.2 58612.2 58308.5 58308.5 58006.4 58006.4 57706 57706 57407.2 57407.2 57110 57110 56814.5 56814.5 56520.5 56520.5 56228.1 56228.1 55937.3 55937.3 55648.1 55648.1 55360.4 55360.4 55074.3 55074.3 54789.7 54789.7 54506.7 54506.7 54225.1 54225.1 53945.1 53945.1 53666.6 53666.6 53389.6 53389.6 53114 53114 52839.9 52839.9 52567.3 52567.3 52296.2 52296.2 52026.5 52026.5 51758.2 51758.2 51491.3 51491.3 51225.9 51225.9 50961.9 50961.9 50699.2 50699.2 50438 50438 50178.1 50178.1 49919.6 49919.6 49662.5 49662.5 49406.7 49406.7 49152.3 49152.3 48899.2 48899.2 48647.4 48647.4 48397 48397 48147.9 48147.9 47900 47900 47653.5 47653.5 47408.3 47408.3 47164.3 47164.3 46921.6 46921.6 46680.2 46680.2 46440 46440 46201.1 46201.1 45963.4 45963.4 45726.9 45726.9 45491.7 45491.7 45257.6 45257.6 45024.8 45024.8 44793.2 44793.2 44562.8 44562.8 44333.6 44333.6 44105.5 44105.5 43878.6 43878.6 43652.9 43652.9 43428.4 43428.4 43204.9 43204.9 42982.7 42982.7 42761.5 42761.5 42541.5 42541.5 42322.6 42322.6 42104.9 42104.9 41888.2 41888.2 41672.6 41672.6 41458.2 41458.2 41244.8 41244.8 41032.5 41032.5 40821.2 40821.2 40611.1 40611.1 40401.9 40401.9 40193.9 40193.9 39986.9 39986.9 39780.9 39780.9 39576 39576 39372.1 39372.1 39169.2 39169.2 38967.3 38967.3 38766.5 38766.5 38566.6 38566.6 38367.7 38367.7 38169.9 38169.9 37973 37973 37777.1 37777.1 37582.1 37582.1 37388.2 37388.2 37195.2 37195.2 37003.1 37003.1 36812 36812 36621.8 36621.8 36432.6 36432.6 36244.3 36244.3 36057 36057 35870.5 35870.5 35685 35685 35500.4 35500.4 35316.7 35316.7 35133.8 35133.8 34951.9 34951.9 34770.9 34770.9 34590.7 34590.7 34411.4 34411.4 34233 34233 34055.5 34055.5 33878.8 33878.8 33703 33703 33528 33528 33353.9 33353.9 33180.6 33180.6 33008.2 33008.2 32836.6 32836.6 32665.8 32665.8 32495.8 32495.8 32326.6 32326.6 32158.3 32158.3 31990.8 31990.8 31824 31824 31658.1 31658.1 31493 31493 31328.6 31328.6 31165 31165 31002.2 31002.2 30840.2 30840.2 30679 30679 30518.5 30518.5 30358.8 30358.8 30199.8 30199.8 30041.6 30041.6 29884.1 29884.1 29727.4 29727.4 29571.4 29571.4 29416.1 29416.1 29261.6 29261.6 29107.8 29107.8 28954.7 28954.7 28802.4 28802.4 28650.7 28650.7 28499.8 28499.8 28349.6 28349.6 28200 28200 28051.2 28051.2 27903.1 27903.1 27755.6 27755.6 27608.8 27608.8 27462.7 27462.7 27317.3 27317.3 27172.6 27172.6 27028.5 27028.5 26885.1 26885.1 26742.4 26742.4 26600.3 26600.3 26458.8 26458.8 26318.1 26318.1 26177.9 26177.9 26038.4 26038.4 25899.6 25899.6 25761.4 25761.4 25623.8 25623.8 25486.8 25486.8 25350.5 25350.5 25214.8 25214.8 25079.7 25079.7 24945.2 24945.2 24811.3 24811.3 24678.1 24678.1 24545.4 24545.4 24413.4 24413.4 24281.9 24281.9 24151 24151 24020.8 24020.8 23891.1 23891.1 23762 23762 23633.4 23633.4 23505.5 23505.5 23378.1 23378.1 23251.3 23251.3 23125.1 23125.1 22999.4 22999.4 22874.3 22874.3 22749.8 22749.8 22625.8 22625.8 22502.3 22502.3 22379.4 22379.4 22257.1 22257.1 22135.3 22135.3 22014 22014 21893.3 21893.3 21773.1 21773.1 21653.4 21653.4 21534.3 21534.3 21415.7 21415.7 21297.6 21297.6 21180 21180 21063 21063 20946.5 20946.5 20830.4 20830.4 20714.9 20714.9 20599.9 20599.9 20485.4 20485.4 20371.4 20371.4 20257.9 20257.9 20144.9 20144.9 20032.4 20032.4 19920.3 19920.3 19808.8 19808.8 19697.7 19697.7 19587.1 19587.1 19477 19477 19367.4 19367.4 19258.3 19258.3 19149.6 19149.6 19041.4 19041.4 18933.6 18933.6 18826.3 18826.3 18719.5 18719.5 18613.2 18613.2 18507.3 18507.3 18401.8 18401.8 18296.8 18296.8 18192.3 18192.3 18088.2 18088.2 17984.5 17984.5 17881.3 17881.3 17778.5 17778.5 17676.2 17676.2 17574.2 17574.2 17472.8 17472.8 17371.7 17371.7 17271.1 17271.1 17170.9 17170.9 17071.2 17071.2 16971.8 16971.8 16872.9 16872.9 16774.4 16774.4 16676.3 16676.3 16578.6 16578.6 16481.4 16481.4 16384.5 16384.5 16288 16288 16192 16192 16096.4 16096.4 16001.1 16001.1 15906.3 15906.3 15811.8 15811.8 15717.7 15717.7 15624.1 15624.1 15530.8 15530.8 15437.9 15437.9 15345.4 15345.4 15253.3 15253.3 15161.5 15161.5 15070.2 15070.2 14979.2 14979.2 14888.6 14888.6 14798.4 14798.4 14708.5 14708.5 14619 14619 14529.9 14529.9 14441.2 14441.2 14352.8 14352.8 14264.7 14264.7 14177.1 14177.1 14089.8 14089.8 14002.8 14002.8 13916.2 13916.2 13830 13830 13744.1 13744.1 13658.6 13658.6 13573.4 13573.4 13488.5 13488.5 13404 13404 13319.9 13319.9 13236.1 13236.1 13152.6 13152.6 13069.5 13069.5 12986.7 12986.7 12904.2 12904.2 12822.1 12822.1 12740.3 12740.3 12658.8 12658.8 12577.6 12577.6 12496.8 12496.8 12416.3 12416.3 12336.2 12336.2 12256.3 12256.3 12176.8 12176.8 12097.6 12097.6 12018.7 12018.7 11940.1 11940.1 11861.9 11861.9 11783.9 11783.9 11706.3 11706.3 11628.9 11628.9 11551.9 11551.9 11475.2 11475.2 11398.8 11398.8 11322.7 11322.7 11246.9 11246.9 11171.4 11171.4 11096.1 11096.1 11021.2 11021.2 10946.6 10946.6 10872.3 10872.3 10798.3 10798.3 10724.5 10724.5 10651.1 10651.1 10577.9 10577.9 10505 10505 10432.5 10432.5 10360.2 10360.2 10288.1 10288.1 10216.4 10216.4 10144.9 10144.9 10073.8 10073.8 10002.9 10002.9 9932.25 9932.25 9861.9 9861.9 9791.83 9791.83 9722.02 9722.02 9652.49 9652.49 9583.23 9583.23 9514.24 9514.24 9445.52 9445.52 9377.06 9377.06 9308.86 9308.86 9240.93 9240.93 9173.26 9173.26 9105.86 9105.86 9038.71 9038.71 8971.82 8971.82 8905.19 8905.19 8838.82 8838.82 8772.7 8772.7 8706.83 8706.83 8641.21 8641.21 8575.85 8575.85 8510.74 8510.74 8445.88 8445.88 8381.26 8381.26 8316.89 8316.89 8252.77 8252.77 8188.89 8188.89 8125.25 8125.25 8061.86 8061.86 7998.71 7998.71 7935.8 7935.8 7873.12 7873.12 7810.69 7810.69 7748.49 7748.49 7686.52 7686.52 7624.79 7624.79 7563.3 7563.3 7502.03 7502.03 7441 7441 7380.2 7380.2 7319.62 7319.62 7259.28 7259.28 7199.16 7199.16 7139.26 7139.26 7079.59 7079.59 7020.15 7020.15 6960.93 6960.93 6901.93 6901.93 6843.15 6843.15 6784.59 6784.59 6726.25 6726.25 6668.12 6668.12 6610.22 6610.22 6552.52 6552.52 6495.05 6495.05 6437.79 6437.79 6380.74 6380.74 6323.9 6323.9 6267.27 6267.27 6210.85 6210.85 6154.65 6154.65 6098.65 6098.65 6042.85 6042.85 5987.26 5987.26 5931.88 5931.88 5876.7 5876.7 5821.73 5821.73 5766.96 5766.96 5712.39 5712.39 5658.02 5658.02 5603.84 5603.84 5549.87 5549.87 5496.1 5496.1 5442.52 5442.52 5389.13 5389.13 5335.94 5335.94 5282.95 5282.95 5230.15 5230.15 5177.54 5177.54 5125.12 5125.12 5072.89 5072.89 5020.85 5020.85 4969 4969 4917.34 4917.34 4865.87 4865.87 4814.58 4814.58 4763.47 4763.47 4712.55 4712.55 4661.82 4661.82 4611.27 4611.27 4560.9 4560.9 4510.71 4510.71 4460.71 4460.71 4410.89 4410.89 4361.25 4361.25 4311.79 4311.79 4262.51 4262.51 4213.41 4213.41 4164.49 4164.49 4115.74 4115.74 4067.18 4067.18 4018.8 4018.8 3970.59 3970.59 3922.56 3922.56 3874.71 3874.71 3827.03 3827.03 3779.53 3779.53 3732.21 3732.21 3685.06 3685.06 3638.08 3638.08 3591.28 3591.28 3544.65 3544.65 3498.2 3498.2 3451.91 3451.91 3405.8 3405.8 3359.86 3359.86 3314.08 3314.08 3268.47 3268.47 3223.03 3223.03 3177.76 3177.76 3132.64 3132.64 3087.69 3087.69 3042.91 3042.91 2998.28 2998.28 2953.81 2953.81 2909.5 2909.5 2865.34 2865.34 2821.34 2821.34 2777.49 2777.49 2733.79 2733.79 2690.24 2690.24 2646.84 2646.84 2603.59 2603.59 2560.48 2560.48 2517.52 2517.52 2474.69 2474.69 2432.01 2432.01 2389.47 2389.47 2347.07 2347.07 2304.81 2304.81 2262.69 2262.69 2220.7 2220.7 2178.85 2178.85 2137.13 2137.13 2095.55 2095.55 2054.11 2054.11 2012.8 2012.8 1971.63 1971.63 1930.59 1930.59 1889.69 1889.69 1848.92 1848.92 1808.29 1808.29 1767.8 1767.8 1727.45 1727.45 1687.23 1687.23 1647.15 1647.15 1607.21 1607.21 1567.4 1567.4 1527.74 1527.74 1488.21 1488.21 1448.82 1448.82 1409.57 1409.57 1370.46 1370.46 1331.48 1331.48 1292.65 1292.65 1253.95 1253.95 1215.39 1215.39 1176.97 1176.97 1138.68 1138.68 1100.53 1100.53 1062.51 1062.51 1024.63 1024.63 986.886 986.886 949.273 949.273 911.791 911.791 874.442 874.442 837.224 837.224 800.135 800.135 763.176 763.176 726.346 726.346 689.644 689.644 653.068 653.068 616.62 616.62 580.296 580.296 544.098 544.098 508.024 508.024 472.074 472.074 436.246 436.246 400.541 400.541 364.958 364.958 329.496 329.496 294.155 294.155 258.934 258.934 223.832 223.832 188.849 188.849 153.985 153.985 119.239 119.239 84.6103 84.6103 50.0986 50.0986 15.7034 15.7034 -18.5757 -18.5757 -52.7392 -52.7392 -86.7877 -86.7877 -120.721 -120.721 -154.541 -154.541 -188.247 -188.247 -221.839 -221.839 -255.319 -255.319 -288.686 -288.686 -321.942 -321.942 -355.085 -355.085 -388.118 -388.118 -421.04 -421.04 -453.852 -453.852 -486.554 -486.554 -519.147 -519.147 -551.631 -551.631 -584.006 -584.006 -616.273 -616.273 -648.432 -648.432 -680.485 -680.485 -712.43 -712.43 -744.269 -744.269 -776.002 -776.002 -807.629 -807.629 -839.152 -839.152 -870.569 -870.569 -901.882 -901.882 -933.091 -933.091 -964.196 -964.196 -995.199 -995.199 -1026.1 -1026.1 -1056.9 -1056.9 -1087.59 -1087.59 -1118.18 -1118.18 -1148.68 -1148.68 -1179.07 -1179.07 -1209.36 -1209.36 -1239.55 -1239.55 -1269.64 -1269.64 -1299.63 -1299.63 -1329.52 -1329.52 -1359.32 -1359.32 -1389.02 -1389.02 -1418.61 -1418.61 -1448.11 -1448.11 -1477.52 -1477.52 -1506.83 -1506.83 -1536.04 -1536.04 -1565.15 -1565.15 -1594.17 -1594.17 -1623.09 -1623.09 -1651.92 -1651.92 -1680.66 -1680.66 -1709.3 -1709.3 -1737.85 -1737.85 -1766.3 -1766.3 -1794.66 -1794.66 -1822.93 -1822.93 -1851.1 -1851.1 -1879.18 -1879.18 -1907.18 -1907.18 -1935.07 -1935.07 -1962.88 -1962.88 -1990.6 -1990.6 -2018.23 -2018.23 -2045.77 -2045.77 -2073.21 -2073.21 -2100.57 -2100.57 -2127.84 -2127.84 -2155.02 -2155.02 -2182.12 -2182.12 -2209.12 -2209.12 -2236.04 -2236.04 -2262.87 -2262.87 -2289.61 -2289.61 -2316.26 -2316.26 -2342.83 -2342.83 -2369.32 -2369.32 -2395.71 -2395.71 -2422.03 -2422.03 -2448.25 -2448.25 -2474.39 -2474.39 -2500.45 -2500.45 -2526.42 -2526.42 -2552.31 -2552.31 -2578.12 -2578.12 -2603.84 -2603.84 -2629.48 -2629.48 -2655.04 -2655.04 -2680.51 -2680.51 -2705.9 -2705.9 -2731.21 -2731.21 -2756.44 -2756.44 -2781.59 -2781.59 -2806.66 -2806.66 -2831.64 -2831.64 -2856.55 -2856.55 -2881.38 -2881.38 -2906.12 -2906.12 -2930.79 -2930.79 -2955.38 -2955.38 -2979.89 -2979.89 -3004.32 -3004.32 -3028.67 -3028.67 -3052.94 -3052.94 -3077.14 -3077.14 -3101.26 -3101.26 -3125.3 -3125.3 -3149.26 -3149.26 -3173.15 -3173.15 -3196.96 -3196.96 -3220.7 -3220.7 -3244.36 -3244.36 -3267.94 -3267.94 -3291.45 -3291.45 -3314.89 -3314.89 -3338.25 -3338.25 -3361.53 -3361.53 -3384.74 -3384.74 -3407.88 -3407.88 -3430.94 -3430.94 -3453.93 -3453.93 -3476.85 -3476.85 -3499.69 -3499.69 -3522.46 -3522.46 -3545.16 -3545.16 -3567.79 -3567.79 -3590.35 -3590.35 -3612.83 -3612.83 -3635.24 -3635.24 -3657.58 -3657.58 -3679.85 -3679.85 -3702.05 -3702.05 -3724.18 -3724.18 -3746.24 -3746.24 -3768.23 -3768.23 -3790.15 -3790.15 -3812 -3812 -3833.78 -3833.78 -3855.5 -3855.5 -3877.14 -3877.14 -3898.72 -3898.72 -3920.23 -3920.23 -3941.67 -3941.67 -3963.04 -3963.04 -3984.34 -3984.34 -4005.58 -4005.58 -4026.75 -4026.75 -4047.85 -4047.85 -4068.89 -4068.89 -4089.86 -4089.86 -4110.77 -4110.77 -4131.61 -4131.61 -4152.38 -4152.38 -4173.09 -4173.09 -4193.74 -4193.74 -4214.31 -4214.31 -4234.83 -4234.83 -4255.28 -4255.28 -4275.66 -4275.66 -4295.99 -4295.99 -4316.24 -4316.24 -4336.44 -4336.44 -4356.57 -4356.57 -4376.64 -4376.64 -4396.64 -4396.64 -4416.58 -4416.58 -4436.46 -4436.46 -4456.28 -4456.28 -4476.04 -4476.04 -4495.73 -4495.73 -4515.36 -4515.36 -4534.93 -4534.93 -4554.44 -4554.44 -4573.89 -4573.89 -4593.28 -4593.28 -4612.61 -4612.61 -4631.88 -4631.88 -4651.08 -4651.08 -4670.23 -4670.23 -4689.32 -4689.32 -4708.35 -4708.35 -4727.31 -4727.31 -4746.22 -4746.22 -4765.08 -4765.08 -4783.87 -4783.87 -4802.6 -4802.6 -4821.28 -4821.28 -4839.89 -4839.89 -4858.45 -4858.45 -4876.95 -4876.95 -4895.4 -4895.4 -4913.78 -4913.78 -4932.11 -4932.11 -4950.39 -4950.39 -4968.6 -4968.6 -4986.76 -4986.76 -5004.87 -5004.87 -5022.91 -5022.91 -5040.9 -5040.9 -5058.84 -5058.84 -5076.72 -5076.72 -5094.54 -5094.54 -5112.31 -5112.31 -5130.02 -5130.02 -5147.68 -5147.68 -5165.29 -5165.29 -5182.84 -5182.84 -5200.33 -5200.33 -5217.77 -5217.77 -5235.16 -5235.16 -5252.49 -5252.49 -5269.77 -5269.77 -5287 -5287 -5304.17 -5304.17 -5321.3 -5321.3 -5338.36 -5338.36 -5355.38 -5355.38 -5372.34 -5372.34 -5389.25 -5389.25 -5406.11 -5406.11 -5422.91 -5422.91 -5439.67 -5439.67 -5456.37 -5456.37 -5473.02 -5473.02 -5489.62 -5489.62 -5506.17 -5506.17 -5522.67 -5522.67 -5539.11 -5539.11 -5555.51 -5555.51 -5571.85 -5571.85 -5588.15 -5588.15 -5604.39 -5604.39 -5620.59 -5620.59 -5636.73 -5636.73 -5652.83 -5652.83 -5668.87 -5668.87 -5684.87 -5684.87 -5700.82 -5700.82 -5716.72 -5716.72 -5732.57 -5732.57 -5748.37 -5748.37 -5764.12 -5764.12 -5779.82 -5779.82 -5795.48 -5795.48 -5811.09 -5811.09 -5826.65 -5826.65 -5842.16 -5842.16 -5857.63 -5857.63 -5873.04 -5873.04 -5888.41 -5888.41 -5903.74 -5903.74 -5919.01 -5919.01 -5934.24 -5934.24 -5949.42 -5949.42 -5964.56 -5964.56 -5979.65 -5979.65 -5994.69 -5994.69 -6009.69 -6009.69 -6024.64 -6024.64 -6039.55 -6039.55 -6054.41 -6054.41 -6069.22 -6069.22 -6083.99 -6083.99 -6098.72 -6098.72 -6113.4 -6113.4 -6128.03 -6128.03 -6142.62 -6142.62 -6157.16 -6157.16 -6171.66 -6171.66 -6186.12 -6186.12 -6200.53 -6200.53 -6214.9 -6214.9 -6229.23 -6229.23 -6243.51 -6243.51 -6257.74 -6257.74 -6271.94 -6271.94 -6286.09 -6286.09 -6300.19 -6300.19 -6314.26 -6314.26 -6328.28 -6328.28 -6342.26 -6342.26 -6356.19 -6356.19 -6370.08 -6370.08 -6383.94 -6383.94 -6397.74 -6397.74 -6411.51 -6411.51 -6425.23 -6425.23 -6438.92 -6438.92 -6452.56 -6452.56 -6466.16 -6466.16 -6479.71 -6479.71 -6493.23 -6493.23 -6506.71 -6506.71 -6520.14 -6520.14 -6533.53 -6533.53 -6546.89 -6546.89 -6560.2 -6560.2 -6573.47 -6573.47 -6586.7 -6586.7 -6599.89 -6599.89 -6613.04 -6613.04 -6626.15 -6626.15 -6639.22 -6639.22 -6652.25 -6652.25 -6665.24 -6665.24 -6678.19 -6678.19 -6691.11 -6691.11 -6703.98 -6703.98 -6716.81 -6716.81 -6729.61 -6729.61 -6742.36 -6742.36 -6755.08 -6755.08 -6767.76 -6767.76 -6780.4 -6780.4 -6793 -6793 -6805.56 -6805.56 -6818.08 -6818.08 -6830.57 -6830.57 -6843.02 -6843.02 -6855.43 -6855.43 -6867.8 -6867.8 -6880.14 -6880.14 -6892.44 -6892.44 -6904.7 -6904.7 -6916.92 -6916.92 -6929.11 -6929.11 -6941.26 -6941.26 -6953.37 -6953.37 -6965.45 -6965.45 -6977.49 -6977.49 -6989.49 -6989.49 -7001.45 -7001.45 -7013.38 -7013.38 -7025.28 -7025.28 -7037.14 -7037.14 -7048.96 -7048.96 -7060.74 -7060.74 -7072.49 -7072.49 -7084.21 -7084.21 -7095.89 -7095.89 