# vtk DataFile Version 3.0
#This file was generated by the deal.II library on 2020/9/6 at 2:48:39
ASCII
DATASET UNSTRUCTURED_GRID

POINTS 4096 double
1.5 0 0
1.59692 0 0
1.59692 0 0
1.69385 0 0
1.69385 0 0
1.79077 0 0
1.79077 0 0
1.8877 0 0
1.8877 0 0
1.98462 0 0
1.98462 0 0
2.08154 0 0
2.08154 0 0
2.17847 0 0
2.17847 0 0
2.27539 0 0
2.27539 0 0
2.37231 0 0
2.37231 0 0
2.46924 0 0
2.46924 0 0
2.56616 0 0
2.56616 0 0
2.66309 0 0
2.66309 0 0
2.76001 0 0
2.76001 0 0
2.85693 0 0
2.85693 0 0
2.95386 0 0
2.95386 0 0
3.05078 0 0
3.05078 0 0
3.14771 0 0
3.14771 0 0
3.24463 0 0
3.24463 0 0
3.34155 0 0
3.34155 0 0
3.43848 0 0
3.43848 0 0
3.5354 0 0
3.5354 0 0
3.63232 0 0
3.63232 0 0
3.72925 0 0
3.72925 0 0
3.82617 0 0
3.82617 0 0
3.9231 0 0
3.9231 0 0
4.02002 0 0
4.02002 0 0
4.11694 0 0
4.11694 0 0
4.21387 0 0
4.21387 0 0
4.31079 0 0
4.31079 0 0
4.40771 0 0
4.40771 0 0
4.50464 0 0
4.50464 0 0
4.60156 0 0
4.60156 0 0
4.69849 0 0
4.69849 0 0
4.79541 0 0
4.79541 0 0
4.89233 0 0
4.89233 0 0
4.98926 0 0
4.98926 0 0
5.08618 0 0
5.08618 0 0
5.18311 0 0
5.18311 0 0
5.28003 0 0
5.28003 0 0
5.37695 0 0
5.37695 0 0
5.47388 0 0
5.47388 0 0
5.5708 0 0
5.5708 0 0
5.66772 0 0
5.66772 0 0
5.76465 0 0
5.76465 0 0
5.86157 0 0
5.86157 0 0
5.9585 0 0
5.9585 0 0
6.05542 0 0
6.05542 0 0
6.15234 0 0
6.15234 0 0
6.24927 0 0
6.24927 0 0
6.34619 0 0
6.34619 0 0
6.44312 0 0
6.44312 0 0
6.54004 0 0
6.54004 0 0
6.63696 0 0
6.63696 0 0
6.73389 0 0
6.73389 0 0
6.83081 0 0
6.83081 0 0
6.92773 0 0
6.92773 0 0
7.02466 0 0
7.02466 0 0
7.12158 0 0
7.12158 0 0
7.21851 0 0
7.21851 0 0
7.31543 0 0
7.31543 0 0
7.41235 0 0
7.41235 0 0
7.50928 0 0
7.50928 0 0
7.6062 0 0
7.6062 0 0
7.70312 0 0
7.70312 0 0
7.80005 0 0
7.80005 0 0
7.89697 0 0
7.89697 0 0
7.9939 0 0
7.9939 0 0
8.09082 0 0
8.09082 0 0
8.18774 0 0
8.18774 0 0
8.28467 0 0
8.28467 0 0
8.38159 0 0
8.38159 0 0
8.47852 0 0
8.47852 0 0
8.57544 0 0
8.57544 0 0
8.67236 0 0
8.67236 0 0
8.76929 0 0
8.76929 0 0
8.86621 0 0
8.86621 0 0
8.96313 0 0
8.96313 0 0
9.06006 0 0
9.06006 0 0
9.15698 0 0
9.15698 0 0
9.25391 0 0
9.25391 0 0
9.35083 0 0
9.35083 0 0
9.44775 0 0
9.44775 0 0
9.54468 0 0
9.54468 0 0
9.6416 0 0
9.6416 0 0
9.73853 0 0
9.73853 0 0
9.83545 0 0
9.83545 0 0
9.93237 0 0
9.93237 0 0
10.0293 0 0
10.0293 0 0
10.1262 0 0
10.1262 0 0
10.2231 0 0
10.2231 0 0
10.3201 0 0
10.3201 0 0
10.417 0 0
10.417 0 0
10.5139 0 0
10.5139 0 0
10.6108 0 0
10.6108 0 0
10.7078 0 0
10.7078 0 0
10.8047 0 0
10.8047 0 0
10.9016 0 0
10.9016 0 0
10.9985 0 0
10.9985 0 0
11.0955 0 0
11.0955 0 0
11.1924 0 0
11.1924 0 0
11.2893 0 0
11.2893 0 0
11.3862 0 0
11.3862 0 0
11.4832 0 0
11.4832 0 0
11.5801 0 0
11.5801 0 0
11.677 0 0
11.677 0 0
11.7739 0 0
11.7739 0 0
11.8708 0 0
11.8708 0 0
11.9678 0 0
11.9678 0 0
12.0647 0 0
12.0647 0 0
12.1616 0 0
12.1616 0 0
12.2585 0 0
12.2585 0 0
12.3555 0 0
12.3555 0 0
12.4524 0 0
12.4524 0 0
12.5493 0 0
12.5493 0 0
12.6462 0 0
12.6462 0 0
12.7432 0 0
12.7432 0 0
12.8401 0 0
12.8401 0 0
12.937 0 0
12.937 0 0
13.0339 0 0
13.0339 0 0
13.1309 0 0
13.1309 0 0
13.2278 0 0
13.2278 0 0
13.3247 0 0
13.3247 0 0
13.4216 0 0
13.4216 0 0
13.5186 0 0
13.5186 0 0
13.6155 0 0
13.6155 0 0
13.7124 0 0
13.7124 0 0
13.8093 0 0
13.8093 0 0
13.9062 0 0
13.9062 0 0
14.0032 0 0
14.0032 0 0
14.1001 0 0
14.1001 0 0
14.197 0 0
14.197 0 0
14.2939 0 0
14.2939 0 0
14.3909 0 0
14.3909 0 0
14.4878 0 0
14.4878 0 0
14.5847 0 0
14.5847 0 0
14.6816 0 0
14.6816 0 0
14.7786 0 0
14.7786 0 0
14.8755 0 0
14.8755 0 0
14.9724 0 0
14.9724 0 0
15.0693 0 0
15.0693 0 0
15.1663 0 0
15.1663 0 0
15.2632 0 0
15.2632 0 0
15.3601 0 0
15.3601 0 0
15.457 0 0
15.457 0 0
15.554 0 0
15.554 0 0
15.6509 0 0
15.6509 0 0
15.7478 0 0
15.7478 0 0
15.8447 0 0
15.8447 0 0
15.9417 0 0
15.9417 0 0
16.0386 0 0
16.0386 0 0
16.1355 0 0
16.1355 0 0
16.2324 0 0
16.2324 0 0
16.3293 0 0
16.3293 0 0
16.4263 0 0
16.4263 0 0
16.5232 0 0
16.5232 0 0
16.6201 0 0
16.6201 0 0
16.717 0 0
16.717 0 0
16.814 0 0
16.814 0 0
16.9109 0 0
16.9109 0 0
17.0078 0 0
17.0078 0 0
17.1047 0 0
17.1047 0 0
17.2017 0 0
17.2017 0 0
17.2986 0 0
17.2986 0 0
17.3955 0 0
17.3955 0 0
17.4924 0 0
17.4924 0 0
17.5894 0 0
17.5894 0 0
17.6863 0 0
17.6863 0 0
17.7832 0 0
17.7832 0 0
17.8801 0 0
17.8801 0 0
17.9771 0 0
17.9771 0 0
18.074 0 0
18.074 0 0
18.1709 0 0
18.1709 0 0
18.2678 0 0
18.2678 0 0
18.3647 0 0
18.3647 0 0
18.4617 0 0
18.4617 0 0
18.5586 0 0
18.5586 0 0
18.6555 0 0
18.6555 0 0
18.7524 0 0
18.7524 0 0
18.8494 0 0
18.8494 0 0
18.9463 0 0
18.9463 0 0
19.0432 0 0
19.0432 0 0
19.1401 0 0
19.1401 0 0
19.2371 0 0
19.2371 0 0
19.334 0 0
19.334 0 0
19.4309 0 0
19.4309 0 0
19.5278 0 0
19.5278 0 0
19.6248 0 0
19.6248 0 0
19.7217 0 0
19.7217 0 0
19.8186 0 0
19.8186 0 0
19.9155 0 0
19.9155 0 0
20.0125 0 0
20.0125 0 0
20.1094 0 0
20.1094 0 0
20.2063 0 0
20.2063 0 0
20.3032 0 0
20.3032 0 0
20.4001 0 0
20.4001 0 0
20.4971 0 0
20.4971 0 0
20.594 0 0
20.594 0 0
20.6909 0 0
20.6909 0 0
20.7878 0 0
20.7878 0 0
20.8848 0 0
20.8848 0 0
20.9817 0 0
20.9817 0 0
21.0786 0 0
21.0786 0 0
21.1755 0 0
21.1755 0 0
21.2725 0 0
21.2725 0 0
21.3694 0 0
21.3694 0 0
21.4663 0 0
21.4663 0 0
21.5632 0 0
21.5632 0 0
21.6602 0 0
21.6602 0 0
21.7571 0 0
21.7571 0 0
21.854 0 0
21.854 0 0
21.9509 0 0
21.9509 0 0
22.0479 0 0
22.0479 0 0
22.1448 0 0
22.1448 0 0
22.2417 0 0
22.2417 0 0
22.3386 0 0
22.3386 0 0
22.4355 0 0
22.4355 0 0
22.5325 0 0
22.5325 0 0
22.6294 0 0
22.6294 0 0
22.7263 0 0
22.7263 0 0
22.8232 0 0
22.8232 0 0
22.9202 0 0
22.9202 0 0
23.0171 0 0
23.0171 0 0
23.114 0 0
23.114 0 0
23.2109 0 0
23.2109 0 0
23.3079 0 0
23.3079 0 0
23.4048 0 0
23.4048 0 0
23.5017 0 0
23.5017 0 0
23.5986 0 0
23.5986 0 0
23.6956 0 0
23.6956 0 0
23.7925 0 0
23.7925 0 0
23.8894 0 0
23.8894 0 0
23.9863 0 0
23.9863 0 0
24.0833 0 0
24.0833 0 0
24.1802 0 0
24.1802 0 0
24.2771 0 0
24.2771 0 0
24.374 0 0
24.374 0 0
24.4709 0 0
24.4709 0 0
24.5679 0 0
24.5679 0 0
24.6648 0 0
24.6648 0 0
24.7617 0 0
24.7617 0 0
24.8586 0 0
24.8586 0 0
24.9556 0 0
24.9556 0 0
25.0525 0 0
25.0525 0 0
25.1494 0 0
25.1494 0 0
25.2463 0 0
25.2463 0 0
25.3433 0 0
25.3433 0 0
25.4402 0 0
25.4402 0 0
25.5371 0 0
25.5371 0 0
25.634 0 0
25.634 0 0
25.731 0 0
25.731 0 0
25.8279 0 0
25.8279 0 0
25.9248 0 0
25.9248 0 0
26.0217 0 0
26.0217 0 0
26.1187 0 0
26.1187 0 0
26.2156 0 0
26.2156 0 0
26.3125 0 0
26.3125 0 0
26.4094 0 0
26.4094 0 0
26.5063 0 0
26.5063 0 0
26.6033 0 0
26.6033 0 0
26.7002 0 0
26.7002 0 0
26.7971 0 0
26.7971 0 0
26.894 0 0
26.894 0 0
26.991 0 0
26.991 0 0
27.0879 0 0
27.0879 0 0
27.1848 0 0
27.1848 0 0
27.2817 0 0
27.2817 0 0
27.3787 0 0
27.3787 0 0
27.4756 0 0
27.4756 0 0
27.5725 0 0
27.5725 0 0
27.6694 0 0
27.6694 0 0
27.7664 0 0
27.7664 0 0
27.8633 0 0
27.8633 0 0
27.9602 0 0
27.9602 0 0
28.0571 0 0
28.0571 0 0
28.1541 0 0
28.1541 0 0
28.251 0 0
28.251 0 0
28.3479 0 0
28.3479 0 0
28.4448 0 0
28.4448 0 0
28.5417 0 0
28.5417 0 0
28.6387 0 0
28.6387 0 0
28.7356 0 0
28.7356 0 0
28.8325 0 0
28.8325 0 0
28.9294 0 0
28.9294 0 0
29.0264 0 0
29.0264 0 0
29.1233 0 0
29.1233 0 0
29.2202 0 0
29.2202 0 0
29.3171 0 0
29.3171 0 0
29.4141 0 0
29.4141 0 0
29.511 0 0
29.511 0 0
29.6079 0 0
29.6079 0 0
29.7048 0 0
29.7048 0 0
29.8018 0 0
29.8018 0 0
29.8987 0 0
29.8987 0 0
29.9956 0 0
29.9956 0 0
30.0925 0 0
30.0925 0 0
30.1895 0 0
30.1895 0 0
30.2864 0 0
30.2864 0 0
30.3833 0 0
30.3833 0 0
30.4802 0 0
30.4802 0 0
30.5771 0 0
30.5771 0 0
30.6741 0 0
30.6741 0 0
30.771 0 0
30.771 0 0
30.8679 0 0
30.8679 0 0
30.9648 0 0
30.9648 0 0
31.0618 0 0
31.0618 0 0
31.1587 0 0
31.1587 0 0
31.2556 0 0
31.2556 0 0
31.3525 0 0
31.3525 0 0
31.4495 0 0
31.4495 0 0
31.5464 0 0
31.5464 0 0
31.6433 0 0
31.6433 0 0
31.7402 0 0
31.7402 0 0
31.8372 0 0
31.8372 0 0
31.9341 0 0
31.9341 0 0
32.031 0 0
32.031 0 0
32.1279 0 0
32.1279 0 0
32.2249 0 0
32.2249 0 0
32.3218 0 0
32.3218 0 0
32.4187 0 0
32.4187 0 0
32.5156 0 0
32.5156 0 0
32.6125 0 0
32.6125 0 0
32.7095 0 0
32.7095 0 0
32.8064 0 0
32.8064 0 0
32.9033 0 0
32.9033 0 0
33.0002 0 0
33.0002 0 0
33.0972 0 0
33.0972 0 0
33.1941 0 0
33.1941 0 0
33.291 0 0
33.291 0 0
33.3879 0 0
33.3879 0 0
33.4849 0 0
33.4849 0 0
33.5818 0 0
33.5818 0 0
33.6787 0 0
33.6787 0 0
33.7756 0 0
33.7756 0 0
33.8726 0 0
33.8726 0 0
33.9695 0 0
33.9695 0 0
34.0664 0 0
34.0664 0 0
34.1633 0 0
34.1633 0 0
34.2603 0 0
34.2603 0 0
34.3572 0 0
34.3572 0 0
34.4541 0 0
34.4541 0 0
34.551 0 0
34.551 0 0
34.6479 0 0
34.6479 0 0
34.7449 0 0
34.7449 0 0
34.8418 0 0
34.8418 0 0
34.9387 0 0
34.9387 0 0
35.0356 0 0
35.0356 0 0
35.1326 0 0
35.1326 0 0
35.2295 0 0
35.2295 0 0
35.3264 0 0
35.3264 0 0
35.4233 0 0
35.4233 0 0
35.5203 0 0
35.5203 0 0
35.6172 0 0
35.6172 0 0
35.7141 0 0
35.7141 0 0
35.811 0 0
35.811 0 0
35.908 0 0
35.908 0 0
36.0049 0 0
36.0049 0 0
36.1018 0 0
36.1018 0 0
36.1987 0 0
36.1987 0 0
36.2957 0 0
36.2957 0 0
36.3926 0 0
36.3926 0 0
36.4895 0 0
36.4895 0 0
36.5864 0 0
36.5864 0 0
36.6833 0 0
36.6833 0 0
36.7803 0 0
36.7803 0 0
36.8772 0 0
36.8772 0 0
36.9741 0 0
36.9741 0 0
37.071 0 0
37.071 0 0
37.168 0 0
37.168 0 0
37.2649 0 0
37.2649 0 0
37.3618 0 0
37.3618 0 0
37.4587 0 0
37.4587 0 0
37.5557 0 0
37.5557 0 0
37.6526 0 0
37.6526 0 0
37.7495 0 0
37.7495 0 0
37.8464 0 0
37.8464 0 0
37.9434 0 0
37.9434 0 0
38.0403 0 0
38.0403 0 0
38.1372 0 0
38.1372 0 0
38.2341 0 0
38.2341 0 0
38.3311 0 0
38.3311 0 0
38.428 0 0
38.428 0 0
38.5249 0 0
38.5249 0 0
38.6218 0 0
38.6218 0 0
38.7188 0 0
38.7188 0 0
38.8157 0 0
38.8157 0 0
38.9126 0 0
38.9126 0 0
39.0095 0 0
39.0095 0 0
39.1064 0 0
39.1064 0 0
39.2034 0 0
39.2034 0 0
39.3003 0 0
39.3003 0 0
39.3972 0 0
39.3972 0 0
39.4941 0 0
39.4941 0 0
39.5911 0 0
39.5911 0 0
39.688 0 0
39.688 0 0
39.7849 0 0
39.7849 0 0
39.8818 0 0
39.8818 0 0
39.9788 0 0
39.9788 0 0
40.0757 0 0
40.0757 0 0
40.1726 0 0
40.1726 0 0
40.2695 0 0
40.2695 0 0
40.3665 0 0
40.3665 0 0
40.4634 0 0
40.4634 0 0
40.5603 0 0
40.5603 0 0
40.6572 0 0
40.6572 0 0
40.7542 0 0
40.7542 0 0
40.8511 0 0
40.8511 0 0
40.948 0 0
40.948 0 0
41.0449 0 0
41.0449 0 0
41.1418 0 0
41.1418 0 0
41.2388 0 0
41.2388 0 0
41.3357 0 0
41.3357 0 0
41.4326 0 0
41.4326 0 0
41.5295 0 0
41.5295 0 0
[...]
POINT_DATA 4096
SCALARS solution_0 double 1
LOOKUP_TABLE default
61.6055 60.3166 60.3166 59.2258 59.2258 58.2931 58.2931 57.488 57.488 56.7867 56.7867 56.1704 56.1704 55.6243 55.6243 55.1364 55.1364 54.697 54.697 54.2982 54.2982 53.9336 53.9336 53.5978 53.5978 53.2863 53.2863 52.9954 52.9954 52.7219 52.7219 52.4632 52.4632 52.217 52.217 51.9815 51.9815 51.755 51.755 51.5361 51.5361 51.3236 51.3236 51.1166 51.1166 50.914 50.914 50.7152 50.7152 50.5195 50.5195 50.3263 50.3263 50.1352 50.1352 49.9457 49.9457 49.7575 49.7575 49.5702 49.5702 49.3836 49.3836 49.1974 49.1974 49.0115 49.0115 48.8257 48.8257 48.6398 48.6398 48.4538 48.4538 48.2674 48.2674 48.0807 48.0807 47.8935 47.8935 47.7058 47.7058 47.5176 47.5176 47.3288 47.3288 47.1394 47.1394 46.9493 46.9493 46.7586 46.7586 46.5673 46.5673 46.3753 46.3753 46.1827 46.1827 45.9894 45.9894 45.7955 45.7955 45.601 45.601 45.4059 45.4059 45.2103 45.2103 45.0141 45.0141 44.8173 44.8173 44.6201 44.6201 44.4223 44.4223 44.2241 44.2241 44.0255 44.0255 43.8265 43.8265 43.6271 43.6271 43.4274 43.4274 43.2273 43.2273 43.027 43.027 42.8264 42.8264 42.6256 42.6256 42.4246 42.4246 42.2234 42.2234 42.0221 42.0221 41.8207 41.8207 41.6192 41.6192 41.4176 41.4176 41.216 41.216 41.0144 41.0144 40.8129 40.8129 40.6113 40.6113 40.4099 40.4099 40.2085 40.2085 40.0073 40.0073 39.8062 39.8062 39.6053 39.6053 39.4046 39.4046 39.2041 39.2041 39.0039 39.0039 38.8039 38.8039 38.6041 38.6041 38.4047 38.4047 38.2056 38.2056 38.0069 38.0069 37.8085 37.8085 37.6104 37.6104 37.4128 37.4128 37.2156 37.2156 37.0188 37.0188 36.8224 36.8224 36.6265 36.6265 36.4311 36.4311 36.2362 36.2362 36.0417 36.0417 35.8478 35.8478 35.6544 35.6544 35.4616 35.4616 35.2693 35.2693 35.0776 35.0776 34.8865 34.8865 34.6959 34.6959 34.506 34.506 34.3167 34.3167 34.128 34.128 33.9399 33.9399 33.7525 33.7525 33.5657 33.5657 33.3796 33.3796 33.1942 33.1942 33.0095 33.0095 32.8255 32.8255 32.6422 32.6422 32.4596 32.4596 32.2778 32.2778 32.0967 32.0967 31.9163 31.9163 31.7367 31.7367 31.5579 31.5579 31.3798 31.3798 31.2026 31.2026 31.026 31.026 30.8503 30.8503 30.6754 30.6754 30.5012 30.5012 30.3278 30.3278 30.1552 30.1552 29.9834 29.9834 29.8123 29.8123 29.6419 29.6419 29.4723 29.4723 29.3034 29.3034 29.1352 29.1352 28.9677 28.9677 28.8008 28.8008 28.6346 28.6346 28.469 28.469 28.3041 28.3041 28.1397 28.1397 27.9759 27.9759 27.8127 27.8127 27.6501 27.6501 27.488 27.488 27.3265 27.3265 27.1655 27.1655 27.0051 27.0051 26.8452 26.8452 26.6859 26.6859 26.5271 26.5271 26.369 26.369 26.2114 26.2114 26.0545 26.0545 25.8982 25.8982 25.7425 25.7425 25.5876 25.5876 25.4334 25.4334 25.2799 25.2799 25.1271 25.1271 24.9751 24.9751 24.8239 24.8239 24.6735 24.6735 24.5238 24.5238 24.3749 24.3749 24.2267 24.2267 24.079 24.079 23.9318 23.9318 23.7849 23.7849 23.6379 23.6379 23.4906 23.4906 23.3425 23.3425 23.193 23.193 23.0414 23.0414 22.8872 22.8872 22.7293 22.7293 22.5671 22.5671 22.3996 22.3996 22.2262 22.2262 22.0463 22.0463 21.8596 21.8596 21.6662 21.6662 21.4668 21.4668 21.2622 21.2622 21.054 21.054 20.8443 20.8443 20.6354 20.6354 20.4299 20.4299 20.2306 20.2306 20.04 20.04 19.8603 19.8603 19.6933 19.6933 19.54 19.54 19.401 19.401 19.276 19.276 19.1646 19.1646 19.0659 19.0659 18.9789 18.9789 18.9031 18.9031 18.8379 18.8379 18.7833 18.7833 18.7397 18.7397 18.7079 18.7079 18.6887 18.6887 18.6832 18.6832 18.6924 18.6924 18.7169 18.7169 18.7572 18.7572 18.8135 18.8135 18.8855 18.8855 18.9727 18.9727 19.0742 19.0742 19.1889 19.1889 19.3152 19.3152 19.4513 19.4513 19.5952 19.5952 19.7443 19.7443 19.8959 19.8959 20.0468 20.0468 20.1939 20.1939 20.3337 20.3337 20.4626 20.4626 20.5771 20.5771 20.6738 20.6738 20.7495 20.7495 20.8012 20.8012 20.8264 20.8264 20.8227 20.8227 20.7886 20.7886 20.7229 20.7229 20.6251 20.6251 20.4954 20.4954 20.3343 20.3343 20.1433 20.1433 19.9241 19.9241 19.6793 19.6793 19.4116 19.4116 19.1242 19.1242 18.8205 18.8205 18.5041 18.5041 18.1788 18.1788 17.8482 17.8482 17.5157 17.5157 17.1848 17.1848 16.8584 16.8584 16.5394 16.5394 16.23 16.23 15.9322 15.9322 15.6475 15.6475 15.3771 15.3771 15.1218 15.1218 14.8818 14.8818 14.6572 14.6572 14.4478 14.4478 14.253 14.253 14.0723 14.0723 13.9046 13.9046 13.749 13.749 13.6046 13.6046 13.4703 13.4703 13.345 13.345 13.2276 13.2276 13.1173 13.1173 13.0131 13.0131 12.9142 12.9142 12.8198 12.8198 12.7292 12.7292 12.642 12.642 12.5575 12.5575 12.4754 12.4754 12.3952 12.3952 12.3167 12.3167 12.2397 12.2397 12.1639 12.1639 12.0892 12.0892 12.0154 12.0154 11.9424 11.9424 11.8702 11.8702 11.7987 11.7987 11.7279 11.7279 11.6576 11.6576 11.5879 11.5879 11.5188 11.5188 11.4502 11.4502 11.3822 11.3822 11.3146 11.3146 11.2476 11.2476 11.1811 11.1811 11.115 11.115 11.0494 11.0494 10.9843 10.9843 10.9197 10.9197 10.8556 10.8556 10.7919 10.7919 10.7287 10.7287 10.6659 10.6659 10.6036 10.6036 10.5417 10.5417 10.4803 10.4803 10.4193 10.4193 10.3587 10.3587 10.2986 10.2986 10.2389 10.2389 10.1796 10.1796 10.1208 10.1208 10.0623 10.0623 10.0043 10.0043 9.94666 9.94666 9.88944 9.88944 9.83262 9.83262 9.77619 9.77619 9.72016 9.72016 9.66452 9.66452 9.60926 9.60926 9.55438 9.55438 9.49989 9.49989 9.44576 9.44576 9.39201 9.39201 9.33863 9.33863 9.28562 9.28562 9.23296 9.23296 9.18067 9.18067 9.12873 9.12873 9.07714 9.07714 9.0259 9.0259 8.97501 8.97501 8.92446 8.92446 8.87426 8.87426 8.82439 8.82439 8.77485 8.77485 8.72564 8.72564 8.67677 8.67677 8.62822 8.62822 8.57999 8.57999 8.53208 8.53208 8.48449 8.48449 8.43721 8.43721 8.39024 8.39024 8.34359 8.34359 8.29724 8.29724 8.25119 8.25119 8.20544 8.20544 8.15999 8.15999 8.11484 8.11484 8.06998 8.06998 8.02541 8.02541 7.98113 7.98113 7.93714 7.93714 7.89343 7.89343 7.85 7.85 7.80685 7.80685 7.76397 7.76397 7.72137 7.72137 7.67904 7.67904 7.63698 7.63698 7.59519 7.59519 7.55366 7.55366 7.51239 7.51239 7.47139 7.47139 7.43064 7.43064 7.39015 7.39015 7.34992 7.34992 7.30993 7.30993 7.2702 7.2702 7.23071 7.23071 7.19147 7.19147 7.15247 7.15247 7.11371 7.11371 7.0752 7.0752 7.03692 7.03692 6.99888 6.99888 6.96107 6.96107 6.92349 6.92349 6.88615 6.88615 6.84903 6.84903 6.81214 6.81214 6.77547 6.77547 6.73902 6.73902 6.7028 6.7028 6.6668 6.6668 6.63101 6.63101 6.59544 6.59544 6.56009 6.56009 6.52494 6.52494 6.49001 6.49001 6.45528 6.45528 6.42077 6.42077 6.38646 6.38646 6.35235 6.35235 6.31845 6.31845 6.28474 6.28474 6.25124 6.25124 6.21793 6.21793 6.18482 6.18482 6.15191 6.15191 6.11919 6.11919 6.08666 6.08666 6.05432 6.05432 6.02217 6.02217 5.99021 5.99021 5.95843 5.95843 5.92684 5.92684 5.89543 5.89543 5.8642 5.8642 5.83315 5.83315 5.80228 5.80228 5.77159 5.77159 5.74108 5.74108 5.71074 5.71074 5.68057 5.68057 5.65058 5.65058 5.62076 5.62076 5.59111 5.59111 5.56162 5.56162 5.5323 5.5323 5.50315 5.50315 5.47417 5.47417 5.44534 5.44534 5.41668 5.41668 5.38818 5.38818 5.35985 5.35985 5.33166 5.33166 5.30364 5.30364 5.27577 5.27577 5.24806 5.24806 5.22051 5.22051 5.1931 5.1931 5.16585 5.16585 5.13875 5.13875 5.1118 5.1118 5.08499 5.08499 5.05834 5.05834 5.03183 5.03183 5.00547 5.00547 4.97925 4.97925 4.95317 4.95317 4.92724 4.92724 4.90144 4.90144 4.87579 4.87579 4.85028 4.85028 4.82491 4.82491 4.79967 4.79967 4.77457 4.77457 4.7496 4.7496 4.72477 4.72477 4.70007 4.70007 4.67551 4.67551 4.65108 4.65108 4.62677 4.62677 4.6026 4.6026 4.57856 4.57856 4.55464 4.55464 4.53085 4.53085 4.50719 4.50719 4.48365 4.48365 4.46024 4.46024 4.43695 4.43695 4.41378 4.41378 4.39074 4.39074 4.36782 4.36782 4.34501 4.34501 4.32233 4.32233 4.29977 4.29977 4.27732 4.27732 4.25499 4.25499 4.23277 4.23277 4.21068 4.21068 4.18869 4.18869 4.16682 4.16682 4.14507 4.14507 4.12342 4.12342 4.10189 4.10189 4.08047 4.08047 4.05915 4.05915 4.03795 4.03795 4.01686 4.01686 3.99587 3.99587 3.97499 3.97499 3.95422 3.95422 3.93355 3.93355 3.91299 3.91299 3.89253 3.89253 3.87218 3.87218 3.85193 3.85193 3.83178 3.83178 3.81174 3.81174 3.79179 3.79179 3.77194 3.77194 3.7522 3.7522 3.73255 3.73255 3.71301 3.71301 3.69355 3.69355 3.6742 3.6742 3.65494 3.65494 3.63578 3.63578 3.61672 3.61672 3.59775 3.59775 3.57887 3.57887 3.56009 3.56009 3.5414 3.5414 3.5228 3.5228 3.50429 3.50429 3.48587 3.48587 3.46755 3.46755 3.44931 3.44931 3.43117 3.43117 3.41311 3.41311 3.39514 3.39514 3.37726 3.37726 3.35947 3.35947 3.34176 3.34176 3.32414 3.32414 3.3066 3.3066 3.28915 3.28915 3.27178 3.27178 3.2545 3.2545 3.2373 3.2373 3.22018 3.22018 3.20315 3.20315 3.18619 3.18619 3.16932 3.16932 3.15253 3.15253 3.13582 3.13582 3.11919 3.11919 3.10264 3.10264 3.08617 3.08617 3.06977 3.06977 3.05346 3.05346 3.03722 3.03722 3.02106 3.02106 3.00497 3.00497 2.98896 2.98896 2.97303 2.97303 2.95717 2.95717 2.94139 2.94139 2.92568 2.92568 2.91004 2.91004 2.89448 2.89448 2.87899 2.87899 2.86357 2.86357 2.84822 2.84822 2.83295 2.83295 2.81774 2.81774 2.80261 2.80261 2.78755 2.78755 2.77256 2.77256 2.75763 2.75763 2.74278 2.74278 2.72799 2.72799 2.71328 2.71328 2.69863 2.69863 2.68405 2.68405 2.66953 2.66953 2.65508 2.65508 2.6407 2.6407 2.62638 2.62638 2.61213 2.61213 2.59795 2.59795 2.58383 2.58383 2.56977 2.56977 2.55578 2.55578 2.54185 2.54185 2.52798 2.52798 2.51418 2.51418 2.50044 2.50044 2.48676 2.48676 2.47314 2.47314 2.45958 2.45958 2.44609 2.44609 2.43265 2.43265 2.41928 2.41928 2.40597 2.40597 2.39271 2.39271 2.37952 2.37952 2.36638 2.36638 2.35331 2.35331 2.34029 2.34029 2.32733 2.32733 2.31442 2.31442 2.30158 2.30158 2.28879 2.28879 2.27606 2.27606 2.26338 2.26338 2.25076 2.25076 2.2382 2.2382 2.22569 2.22569 2.21323 2.21323 2.20083 2.20083 2.18849 2.18849 2.1762 2.1762 2.16396 2.16396 2.15178 2.15178 2.13965 2.13965 2.12757 2.12757 2.11555 2.11555 2.10358 2.10358 2.09166 2.09166 2.07979 2.07979 2.06798 2.06798 2.05621 2.05621 2.0445 2.0445 2.03284 2.03284 2.02122 2.02122 2.00966 2.00966 1.99815 1.99815 1.98668 1.98668 1.97527 1.97527 1.96391 1.96391 1.95259 1.95259 1.94132 1.94132 1.9301 1.9301 1.91893 1.91893 1.90781 1.90781 1.89673 1.89673 1.88571 1.88571 1.87472 1.87472 1.86379 1.86379 1.8529 1.8529 1.84206 1.84206 1.83126 1.83126 1.82051 1.82051 1.80981 1.80981 1.79915 1.79915 1.78853 1.78853 1.77796 1.77796 1.76744 1.76744 1.75696 1.75696 1.74652 1.74652 1.73613 1.73613 1.72578 1.72578 1.71547 1.71547 1.70521 1.70521 1.69499 1.69499 1.68481 1.68481 1.67467 1.67467 1.66458 1.66458 1.65453 1.65453 1.64452 1.64452 1.63455 1.63455 1.62463 1.62463 1.61474 1.61474 1.6049 1.6049 1.59509 1.59509 1.58533 1.58533 1.57561 1.57561 1.56593 1.56593 1.55628 1.55628 1.54668 1.54668 1.53712 1.53712 1.52759 1.52759 1.51811 1.51811 1.50866 1.50866 1.49926 1.49926 1.48989 1.48989 1.48056 1.48056 1.47126 1.47126 1.46201 1.46201 1.45279 1.45279 1.44361 1.44361 1.43447 1.43447 1.42536 1.42536 1.4163 1.4163 1.40726 1.40726 1.39827 1.39827 1.38931 1.38931 1.38039 1.38039 1.3715 1.3715 1.36265 1.36265 1.35384 1.35384 1.34506 1.34506 1.33631 1.33631 1.32761 1.32761 1.31893 1.31893 1.31029 1.31029 1.30169 1.30169 1.29312 1.29312 1.28458 1.28458 1.27608 1.27608 1.26761 1.26761 1.25918 1.25918 1.25078 1.25078 1.24241 1.24241 1.23408 1.23408 1.22577 1.22577 1.21751 1.21751 1.20927 1.20927 1.20107 1.20107 1.1929 1.1929 1.18476 1.18476 1.17666 1.17666 1.16858 1.16858 1.16054 1.16054 1.15253 1.15253 1.14455 1.14455 1.1366 1.1366 1.12869 1.12869 1.1208 1.1208 1.11295 1.11295 1.10512 1.10512 1.09733 1.09733 1.08957 1.08957 1.08184 1.08184 1.07413 1.07413 1.06646 1.06646 1.05882 1.05882 1.05121 1.05121 1.04362 1.04362 1.03607 1.03607 1.02855 1.02855 1.02105 1.02105 1.01359 1.01359 1.00615 1.00615 0.99874 0.99874 0.991361 0.991361 0.984009 0.984009 0.976686 0.976686 0.969392 0.969392 0.962125 0.962125 0.954886 0.954886 0.947675 0.947675 0.940492 0.940492 0.933336 0.933336 0.926208 0.926208 0.919107 0.919107 0.912033 0.912033 0.904986 0.904986 0.897966 0.897966 0.890973 0.890973 0.884006 0.884006 0.877066 0.877066 0.870153 0.870153 0.863265 0.863265 0.856404 0.856404 0.849569 0.849569 0.84276 0.84276 0.835976 0.835976 0.829218 0.829218 0.822486 0.822486 0.815779 0.815779 0.809098 0.809098 0.802442 0.802442 0.79581 0.79581 0.789204 0.789204 0.782623 0.782623 0.776066 0.776066 0.769534 0.769534 0.763027 0.763027 0.756544 0.756544 0.750085 0.750085 0.74365 0.74365 0.73724 0.73724 0.730853 0.730853 0.72449 0.72449 0.718151 0.718151 0.711836 0.711836 0.705544 0.705544 0.699276 0.699276 0.693031 0.693031 0.686809 0.686809 0.68061 0.68061 0.674434 0.674434 0.668282 0.668282 0.662152 0.662152 0.656044 0.656044 0.649959 0.649959 0.643897 0.643897 0.637857 0.637857 0.631839 0.631839 0.625844 0.625844 0.619871 0.619871 0.613919 0.613919 0.60799 0.60799 0.602082 0.602082 0.596196 0.596196 0.590332 0.590332 0.584489 0.584489 0.578667 0.578667 0.572867 0.572867 0.567088 0.567088 0.561331 0.561331 0.555594 0.555594 0.549878 0.549878 0.544183 0.544183 0.538509 0.538509 0.532855 0.532855 0.527222 0.527222 0.52161 0.52161 0.516017 0.516017 0.510446 0.510446 0.504894 0.504894 0.499363 0.499363 0.493851 0.493851 0.48836 0.48836 0.482888 0.482888 0.477436 0.477436 0.472004 0.472004 0.466592 0.466592 0.461198 0.461198 0.455825 0.455825 0.450471 0.450471 0.445136 0.445136 0.43982 0.43982 0.434523 0.434523 0.429246 0.429246 0.423987 0.423987 0.418747 0.418747 0.413526 0.413526 0.408324 0.408324 0.40314 0.40314 0.397974 0.397974 0.392828 0.392828 0.387699 0.387699 0.382589 0.382589 0.377497 0.377497 0.372424 0.372424 0.367368 0.367368 0.36233 0.36233 0.35731 0.35731 0.352308 0.352308 0.347324 0.347324 0.342358 0.342358 0.337409 0.337409 0.332477 0.332477 0.327563 0.327563 0.322667 0.322667 0.317788 0.317788 0.312926 0.312926 0.308081 0.308081 0.303253 0.303253 0.298443 0.298443 0.293649 0.293649 0.288872 0.288872 0.284112 0.284112 0.279369 0.279369 0.274642 0.274642 0.269932 0.269932 0.265239 0.265239 0.260561 0.260561 0.255901 0.255901 0.251256 0.251256 0.246628 0.246628 0.242017 0.242017 0.237421 0.237421 0.232841 0.232841 0.228277 0.228277 0.22373 0.22373 0.219198 0.219198 0.214682 0.214682 0.210181 0.210181 0.205696 0.205696 0.201227 0.201227 0.196774 0.196774 0.192335 0.192335 0.187913 0.187913 0.183505 0.183505 0.179113 0.179113 0.174736 0.174736 0.170374 0.170374 0.166028 0.166028 0.161696 0.161696 0.157379 0.157379 0.153078 0.153078 0.148791 0.148791 0.144519 0.144519 0.140261 0.140261 0.136018 0.136018 0.13179 0.13179 0.127577 0.127577 0.123378 0.123378 0.119193 0.119193 0.115023 0.115023 0.110867 0.110867 0.106725 0.106725 0.102597 0.102597 0.098484 0.098484 0.0943847 0.0943847 0.0902994 0.0902994 0.0862281 0.0862281 0.0821707 0.0821707 0.0781272 0.0781272 0.0740975 0.0740975 0.0700815 0.0700815 0.0660792 0.0660792 0.0620906 0.0620906 0.0581155 0.0581155 0.054154 0.054154 0.0502059 0.0502059 0.0462713 0.0462713 0.04235 0.04235 0.038442 0.038442 0.0345474 0.0345474 0.0306659 0.0306659 0.0267976 0.0267976 0.0229424 0.0229424 0.0191002 0.0191002 0.015271 0.015271 0.0114548 0.0114548 0.00765153 0.00765153 0.00386108 0.00386108 8.34207e-05 8.34207e-05 -0.00368149 -0.00368149 -0.0074337 -0.0074337 -0.0111733 -0.0111733 -0.0149002 -0.0149002 -0.0186146 -0.0186146 -0.0223166 -0.0223166 -0.026006 -0.026006 -0.0296831 -0.0296831 -0.0333478 -0.0333478 -0.0370002 -0.0370002 -0.0406404 -0.0406404 -0.0442683 -0.0442683 -0.0478841 -0.0478841 -0.0514877 -0.0514877 -0.0550793 -0.0550793 -0.0586589 -0.0586589 -0.0622265 -0.0622265 -0.0657822 -0.0657822 -0.069326 -0.069326 -0.0728579 -0.0728579 -0.0763781 -0.0763781 -0.0798865 -0.0798865 -0.0833832 -0.0833832 -0.0868683 -0.0868683 -0.0903417 -0.0903417 -0.0938036 -0.0938036 -0.097254 -0.097254 -0.100693 -0.100693 -0.10412 -0.10412 -0.107536 -0.107536 -0.110941 -0.110941 -0.114335 -0.114335 -0.117717 -0.117717 -0.121088 -0.121088 -0.124448 -0.124448 -0.127796 -0.127796 -0.131134 -0.131134 -0.13446 -0.13446 -0.137776 -0.137776 -0.141081 -0.141081 -0.144374 -0.144374 -0.147657 -0.147657 -0.150929 -0.150929 -0.15419 -0.15419 -0.157441 -0.157441 -0.16068 -0.16068 -0.163909 -0.163909 -0.167128 -0.167128 -0.170335 -0.170335 -0.173533 -0.173533 -0.176719 -0.176719 -0.179896 -0.179896 -0.183062 -0.183062 -0.186217 -0.186217 -0.189362 -0.189362 -0.192497 -0.192497 -0.195621 -0.195621 -0.198736 -0.198736 -0.20184 -0.20184 -0.204934 -0.204934 -0.208017 -0.208017 -0.211091 -0.211091 -0.214155 -0.214155 -0.217208 -0.217208 -0.220252 -0.220252 -0.223286 -0.223286 -0.226309 -0.226309 -0.229323 -0.229323 -0.232328 -0.232328 -0.235322 -0.235322 -0.238307 -0.238307 -0.241281 -0.241281 -0.244247 -0.244247 -0.247202 -0.247202 -0.250148 -0.250148 -0.253084 -0.253084 -0.256011 -0.256011 -0.258929 -0.258929 -0.261837 -0.261837 -0.264735 -0.264735 -0.267624 -0.267624 -0.270504 -0.270504 -0.273374 -0.273374 -0.276235 -0.276235 -0.279087 -0.279087 -0.281929 -0.281929 -0.284763 -0.284763 -0.287587 -0.287587 -0.290402 -0.290402 -0.293208 -0.293208 -0.296005 -0.296005 -0.298793 -0.298793 -0.301572 -0.301572 -0.304342 -0.304342 -0.307103 -0.307103 -0.309855 -0.309855 -0.312598 -0.312598 -0.315333 -0.315333 -0.318058 -0.318058 -0.320775 -0.320775 -0.323483 -0.323483 -0.326183 -0.326183 -0.328873 -0.328873 -0.331556 -0.331556 -0.334229 -0.334229 -0.336894 -0.336894 -0.33955 -0.33955 -0.342198 -0.342198 -0.344838 -0.344838 -0.347469 -0.347469 -0.350091 -0.350091 -0.352705 -0.352705 -0.355311 -0.355311 -0.357908 -0.357908 -0.360497 -0.360497 -0.363078 -0.363078 -0.365651 -0.365651 -0.368215 -0.368215 -0.370771 -0.370771 -0.373319 -0.373319 -0.375859 -0.375859 -0.378391 -0.378391 -0.380915 -0.380915 -0.383431 -0.383431 -0.385938 -0.385938 -0.388438 -0.388438 -0.39093 -0.39093 -0.393413 -0.393413 -0.395889 -0.395889 -0.398357 -0.398357 -0.400818 -0.400818 -0.40327 -0.40327 -0.405715 -0.405715 -0.408151 -0.408151 -0.410581 -0.410581 -0.413002 -0.413002 -0.415416 -0.415416 -0.417822 -0.417822 -0.42022 -0.42022 -0.422611 -0.422611 -0.424994 -0.424994 -0.42737 -0.42737 -0.429738 -0.429738 -0.432099 -0.432099 -0.434452 -0.434452 -0.436798 -0.436798 -0.439136 -0.439136 -0.441467 -0.441467 -0.443791 -0.443791 -0.446107 -0.446107 -0.448416 -0.448416 -0.450718 -0.450718 -0.453012 -0.453012 -0.4553 -0.4553 -0.45758 -0.45758 -0.459853 -0.459853 -0.462118 -0.462118 -0.464377 -0.464377 -0.466628 -0.466628 -0.468873 -0.468873 -0.47111 -0.47111 -0.47334 -0.47334 -0.475563 -0.475563 -0.47778 -0.47778 -0.479989 -0.479989 -0.482191 -0.482191 -0.484387 -0.484387 -0.486575 -0.486575 -0.488757 -0.488757 -0.490932 -0.490932 -0.4931 -0.4931 -0.495261 -0.495261 -0.497415 -0.497415 -0.499563 -0.499563 -0.501704 -0.501704 -0.503838 -0.503838 -0.505966 -0.505966 -0.508087 -0.508087 -0.510201 -0.510201 -0.512309 -0.512309 -0.51441 -0.51441 -0.516504 -0.516504 -0.518592 -0.518592 -0.520674 -0.520674 -0.522749 -0.522749 -0.524817 -0.524817 -0.526879 -0.526879 -0.528935 -0.528935 -0.530984 -0.530984 -0.533027 -0.533027 -0.535063 -0.535063 -0.537093 -0.537093 -0.539117 -0.539117 -0.541134 -0.541134 -0.543146 -0.543146 -0.545151 -0.545151 -0.547149 -0.547149 -0.549142 -0.549142 -0.551128 -0.551128 -0.553108 -0.553108 -0.555082 -0.555082 -0.55705 -0.55705 -0.559011 -0.559011 -0.560967 -0.560967 -0.562916 -0.562916 -0.56486 -0.56486 -0.566797 -0.566797 -0.568729 -0.568729 -0.570654 -0.570654 -0.572573 -0.572573 -0.574487 -0.574487 -0.576394 -0.576394 -0.578296 -0.578296 -0.580192 -0.580192 -0.582082 -0.582082 -0.583966 -0.583966 -0.585844 -0.585844 -0.587716 -0.587716 -0.589583 -0.589583 -0.591443 -0.591443 -0.593298 -0.593298 -0.595148 -0.595148 -0.596991 -0.596991 -0.598829 -0.598829 -0.600661 -0.600661 -0.602488 -0.602488 -0.604309 -0.604309 -0.606124 -0.606124 -0.607934 -0.607934 -0.609738 -0.609738 -0.611536 -0.611536 -0.613329 -0.613329 -0.615116 -0.615116 -0.616898 -0.616898 -0.618675 -0.618675 -0.620446 -0.620446 -0.622211 -0.622211 -0.623971 -0.623971 -0.625726 -0.625726 -0.627475 -0.627475 -0.629219 -0.629219 -0.630957 -0.630957 -0.63269 -0.63269 -0.634418 -0.634418 -0.63614 -0.63614 -0.637857 -0.637857 -0.639569 -0.639569 -0.641276 -0.641276 -0.642977 -0.642977 -0.644673 -0.644673 -0.646364 -0.646364 -0.64805 -0.64805 -0.64973 -0.64973 -0.651406 -0.651406 -0.653076 -0.653076 -0.654741 -0.654741 -0.656401 -0.656401 -0.658056 -0.658056 -0.659705 -0.659705 -0.66135 -0.66135 -0.66299 -0.66299 -0.664624 -0.