# vtk DataFile Version 3.0
#This file was generated by the deal.II library on 2020/9/6 at 2:51:24
ASCII
DATASET UNSTRUCTURED_GRID

POINTS 4096 double
1.5 0 0
1.59692 0 0
1.59692 0 0
1.69385 0 0
1.69385 0 0
1.79077 0 0
1.79077 0 0
1.8877 0 0
1.8877 0 0
1.98462 0 0
1.98462 0 0
2.08154 0 0
2.08154 0 0
2.17847 0 0
2.17847 0 0
2.27539 0 0
2.27539 0 0
2.37231 0 0
2.37231 0 0
2.46924 0 0
2.46924 0 0
2.56616 0 0
2.56616 0 0
2.66309 0 0
2.66309 0 0
2.76001 0 0
2.76001 0 0
2.85693 0 0
2.85693 0 0
2.95386 0 0
2.95386 0 0
3.05078 0 0
3.05078 0 0
3.14771 0 0
3.14771 0 0
3.24463 0 0
3.24463 0 0
3.34155 0 0
3.34155 0 0
3.43848 0 0
3.43848 0 0
3.5354 0 0
3.5354 0 0
3.63232 0 0
3.63232 0 0
3.72925 0 0
3.72925 0 0
3.82617 0 0
3.82617 0 0
3.9231 0 0
3.9231 0 0
4.02002 0 0
4.02002 0 0
4.11694 0 0
4.11694 0 0
4.21387 0 0
4.21387 0 0
4.31079 0 0
4.31079 0 0
4.40771 0 0
4.40771 0 0
4.50464 0 0
4.50464 0 0
4.60156 0 0
4.60156 0 0
4.69849 0 0
4.69849 0 0
4.79541 0 0
4.79541 0 0
4.89233 0 0
4.89233 0 0
4.98926 0 0
4.98926 0 0
5.08618 0 0
5.08618 0 0
5.18311 0 0
5.18311 0 0
5.28003 0 0
5.28003 0 0
5.37695 0 0
5.37695 0 0
5.47388 0 0
5.47388 0 0
5.5708 0 0
5.5708 0 0
5.66772 0 0
5.66772 0 0
5.76465 0 0
5.76465 0 0
5.86157 0 0
5.86157 0 0
5.9585 0 0
5.9585 0 0
6.05542 0 0
6.05542 0 0
6.15234 0 0
6.15234 0 0
6.24927 0 0
6.24927 0 0
6.34619 0 0
6.34619 0 0
6.44312 0 0
6.44312 0 0
6.54004 0 0
6.54004 0 0
6.63696 0 0
6.63696 0 0
6.73389 0 0
6.73389 0 0
6.83081 0 0
6.83081 0 0
6.92773 0 0
6.92773 0 0
7.02466 0 0
7.02466 0 0
7.12158 0 0
7.12158 0 0
7.21851 0 0
7.21851 0 0
7.31543 0 0
7.31543 0 0
7.41235 0 0
7.41235 0 0
7.50928 0 0
7.50928 0 0
7.6062 0 0
7.6062 0 0
7.70312 0 0
7.70312 0 0
7.80005 0 0
7.80005 0 0
7.89697 0 0
7.89697 0 0
7.9939 0 0
7.9939 0 0
8.09082 0 0
8.09082 0 0
8.18774 0 0
8.18774 0 0
8.28467 0 0
8.28467 0 0
8.38159 0 0
8.38159 0 0
8.47852 0 0
8.47852 0 0
8.57544 0 0
8.57544 0 0
8.67236 0 0
8.67236 0 0
8.76929 0 0
8.76929 0 0
8.86621 0 0
8.86621 0 0
8.96313 0 0
8.96313 0 0
9.06006 0 0
9.06006 0 0
9.15698 0 0
9.15698 0 0
9.25391 0 0
9.25391 0 0
9.35083 0 0
9.35083 0 0
9.44775 0 0
9.44775 0 0
9.54468 0 0
9.54468 0 0
9.6416 0 0
9.6416 0 0
9.73853 0 0
9.73853 0 0
9.83545 0 0
9.83545 0 0
9.93237 0 0
9.93237 0 0
10.0293 0 0
10.0293 0 0
10.1262 0 0
10.1262 0 0
10.2231 0 0
10.2231 0 0
10.3201 0 0
10.3201 0 0
10.417 0 0
10.417 0 0
10.5139 0 0
10.5139 0 0
10.6108 0 0
10.6108 0 0
10.7078 0 0
10.7078 0 0
10.8047 0 0
10.8047 0 0
10.9016 0 0
10.9016 0 0
10.9985 0 0
10.9985 0 0
11.0955 0 0
11.0955 0 0
11.1924 0 0
11.1924 0 0
11.2893 0 0
11.2893 0 0
11.3862 0 0
11.3862 0 0
11.4832 0 0
11.4832 0 0
11.5801 0 0
11.5801 0 0
11.677 0 0
11.677 0 0
11.7739 0 0
11.7739 0 0
11.8708 0 0
11.8708 0 0
11.9678 0 0
11.9678 0 0
12.0647 0 0
12.0647 0 0
12.1616 0 0
12.1616 0 0
12.2585 0 0
12.2585 0 0
12.3555 0 0
12.3555 0 0
12.4524 0 0
12.4524 0 0
12.5493 0 0
12.5493 0 0
12.6462 0 0
12.6462 0 0
12.7432 0 0
12.7432 0 0
12.8401 0 0
12.8401 0 0
12.937 0 0
12.937 0 0
13.0339 0 0
13.0339 0 0
13.1309 0 0
13.1309 0 0
13.2278 0 0
13.2278 0 0
13.3247 0 0
13.3247 0 0
13.4216 0 0
13.4216 0 0
13.5186 0 0
13.5186 0 0
13.6155 0 0
13.6155 0 0
13.7124 0 0
13.7124 0 0
13.8093 0 0
13.8093 0 0
13.9062 0 0
13.9062 0 0
14.0032 0 0
14.0032 0 0
14.1001 0 0
14.1001 0 0
14.197 0 0
14.197 0 0
14.2939 0 0
14.2939 0 0
14.3909 0 0
14.3909 0 0
14.4878 0 0
14.4878 0 0
14.5847 0 0
14.5847 0 0
14.6816 0 0
14.6816 0 0
14.7786 0 0
14.7786 0 0
14.8755 0 0
14.8755 0 0
14.9724 0 0
14.9724 0 0
15.0693 0 0
15.0693 0 0
15.1663 0 0
15.1663 0 0
15.2632 0 0
15.2632 0 0
15.3601 0 0
15.3601 0 0
15.457 0 0
15.457 0 0
15.554 0 0
15.554 0 0
15.6509 0 0
15.6509 0 0
15.7478 0 0
15.7478 0 0
15.8447 0 0
15.8447 0 0
15.9417 0 0
15.9417 0 0
16.0386 0 0
16.0386 0 0
16.1355 0 0
16.1355 0 0
16.2324 0 0
16.2324 0 0
16.3293 0 0
16.3293 0 0
16.4263 0 0
16.4263 0 0
16.5232 0 0
16.5232 0 0
16.6201 0 0
16.6201 0 0
16.717 0 0
16.717 0 0
16.814 0 0
16.814 0 0
16.9109 0 0
16.9109 0 0
17.0078 0 0
17.0078 0 0
17.1047 0 0
17.1047 0 0
17.2017 0 0
17.2017 0 0
17.2986 0 0
17.2986 0 0
17.3955 0 0
17.3955 0 0
17.4924 0 0
17.4924 0 0
17.5894 0 0
17.5894 0 0
17.6863 0 0
17.6863 0 0
17.7832 0 0
17.7832 0 0
17.8801 0 0
17.8801 0 0
17.9771 0 0
17.9771 0 0
18.074 0 0
18.074 0 0
18.1709 0 0
18.1709 0 0
18.2678 0 0
18.2678 0 0
18.3647 0 0
18.3647 0 0
18.4617 0 0
18.4617 0 0
18.5586 0 0
18.5586 0 0
18.6555 0 0
18.6555 0 0
18.7524 0 0
18.7524 0 0
18.8494 0 0
18.8494 0 0
18.9463 0 0
18.9463 0 0
19.0432 0 0
19.0432 0 0
19.1401 0 0
19.1401 0 0
19.2371 0 0
19.2371 0 0
19.334 0 0
19.334 0 0
19.4309 0 0
19.4309 0 0
19.5278 0 0
19.5278 0 0
19.6248 0 0
19.6248 0 0
19.7217 0 0
19.7217 0 0
19.8186 0 0
19.8186 0 0
19.9155 0 0
19.9155 0 0
20.0125 0 0
20.0125 0 0
20.1094 0 0
20.1094 0 0
20.2063 0 0
20.2063 0 0
20.3032 0 0
20.3032 0 0
20.4001 0 0
20.4001 0 0
20.4971 0 0
20.4971 0 0
20.594 0 0
20.594 0 0
20.6909 0 0
20.6909 0 0
20.7878 0 0
20.7878 0 0
20.8848 0 0
20.8848 0 0
20.9817 0 0
20.9817 0 0
21.0786 0 0
21.0786 0 0
21.1755 0 0
21.1755 0 0
21.2725 0 0
21.2725 0 0
21.3694 0 0
21.3694 0 0
21.4663 0 0
21.4663 0 0
21.5632 0 0
21.5632 0 0
21.6602 0 0
21.6602 0 0
21.7571 0 0
21.7571 0 0
21.854 0 0
21.854 0 0
21.9509 0 0
21.9509 0 0
22.0479 0 0
22.0479 0 0
22.1448 0 0
22.1448 0 0
22.2417 0 0
22.2417 0 0
22.3386 0 0
22.3386 0 0
22.4355 0 0
22.4355 0 0
22.5325 0 0
22.5325 0 0
22.6294 0 0
22.6294 0 0
22.7263 0 0
22.7263 0 0
22.8232 0 0
22.8232 0 0
22.9202 0 0
22.9202 0 0
23.0171 0 0
23.0171 0 0
23.114 0 0
23.114 0 0
23.2109 0 0
23.2109 0 0
23.3079 0 0
23.3079 0 0
23.4048 0 0
23.4048 0 0
23.5017 0 0
23.5017 0 0
23.5986 0 0
23.5986 0 0
23.6956 0 0
23.6956 0 0
23.7925 0 0
23.7925 0 0
23.8894 0 0
23.8894 0 0
23.9863 0 0
23.9863 0 0
24.0833 0 0
24.0833 0 0
24.1802 0 0
24.1802 0 0
24.2771 0 0
24.2771 0 0
24.374 0 0
24.374 0 0
24.4709 0 0
24.4709 0 0
24.5679 0 0
24.5679 0 0
24.6648 0 0
24.6648 0 0
24.7617 0 0
24.7617 0 0
24.8586 0 0
24.8586 0 0
24.9556 0 0
24.9556 0 0
25.0525 0 0
25.0525 0 0
25.1494 0 0
25.1494 0 0
25.2463 0 0
25.2463 0 0
25.3433 0 0
25.3433 0 0
25.4402 0 0
25.4402 0 0
25.5371 0 0
25.5371 0 0
25.634 0 0
25.634 0 0
25.731 0 0
25.731 0 0
25.8279 0 0
25.8279 0 0
25.9248 0 0
25.9248 0 0
26.0217 0 0
26.0217 0 0
26.1187 0 0
26.1187 0 0
26.2156 0 0
26.2156 0 0
26.3125 0 0
26.3125 0 0
26.4094 0 0
26.4094 0 0
26.5063 0 0
26.5063 0 0
26.6033 0 0
26.6033 0 0
26.7002 0 0
26.7002 0 0
26.7971 0 0
26.7971 0 0
26.894 0 0
26.894 0 0
26.991 0 0
26.991 0 0
27.0879 0 0
27.0879 0 0
27.1848 0 0
27.1848 0 0
27.2817 0 0
27.2817 0 0
27.3787 0 0
27.3787 0 0
27.4756 0 0
27.4756 0 0
27.5725 0 0
27.5725 0 0
27.6694 0 0
27.6694 0 0
27.7664 0 0
27.7664 0 0
27.8633 0 0
27.8633 0 0
27.9602 0 0
27.9602 0 0
28.0571 0 0
28.0571 0 0
28.1541 0 0
28.1541 0 0
28.251 0 0
28.251 0 0
28.3479 0 0
28.3479 0 0
28.4448 0 0
28.4448 0 0
28.5417 0 0
28.5417 0 0
28.6387 0 0
28.6387 0 0
28.7356 0 0
28.7356 0 0
28.8325 0 0
28.8325 0 0
28.9294 0 0
28.9294 0 0
29.0264 0 0
29.0264 0 0
29.1233 0 0
29.1233 0 0
29.2202 0 0
29.2202 0 0
29.3171 0 0
29.3171 0 0
29.4141 0 0
29.4141 0 0
29.511 0 0
29.511 0 0
29.6079 0 0
29.6079 0 0
29.7048 0 0
29.7048 0 0
29.8018 0 0
29.8018 0 0
29.8987 0 0
29.8987 0 0
29.9956 0 0
29.9956 0 0
30.0925 0 0
30.0925 0 0
30.1895 0 0
30.1895 0 0
30.2864 0 0
30.2864 0 0
30.3833 0 0
30.3833 0 0
30.4802 0 0
30.4802 0 0
30.5771 0 0
30.5771 0 0
30.6741 0 0
30.6741 0 0
30.771 0 0
30.771 0 0
30.8679 0 0
30.8679 0 0
30.9648 0 0
30.9648 0 0
31.0618 0 0
31.0618 0 0
31.1587 0 0
31.1587 0 0
31.2556 0 0
31.2556 0 0
31.3525 0 0
31.3525 0 0
31.4495 0 0
31.4495 0 0
31.5464 0 0
31.5464 0 0
31.6433 0 0
31.6433 0 0
31.7402 0 0
31.7402 0 0
31.8372 0 0
31.8372 0 0
31.9341 0 0
31.9341 0 0
32.031 0 0
32.031 0 0
32.1279 0 0
32.1279 0 0
32.2249 0 0
32.2249 0 0
32.3218 0 0
32.3218 0 0
32.4187 0 0
32.4187 0 0
32.5156 0 0
32.5156 0 0
32.6125 0 0
32.6125 0 0
32.7095 0 0
32.7095 0 0
32.8064 0 0
32.8064 0 0
32.9033 0 0
32.9033 0 0
33.0002 0 0
33.0002 0 0
33.0972 0 0
33.0972 0 0
33.1941 0 0
33.1941 0 0
33.291 0 0
33.291 0 0
33.3879 0 0
33.3879 0 0
33.4849 0 0
33.4849 0 0
33.5818 0 0
33.5818 0 0
33.6787 0 0
33.6787 0 0
33.7756 0 0
33.7756 0 0
33.8726 0 0
33.8726 0 0
33.9695 0 0
33.9695 0 0
34.0664 0 0
34.0664 0 0
34.1633 0 0
34.1633 0 0
34.2603 0 0
34.2603 0 0
34.3572 0 0
34.3572 0 0
34.4541 0 0
34.4541 0 0
34.551 0 0
34.551 0 0
34.6479 0 0
34.6479 0 0
34.7449 0 0
34.7449 0 0
34.8418 0 0
34.8418 0 0
34.9387 0 0
34.9387 0 0
35.0356 0 0
35.0356 0 0
35.1326 0 0
35.1326 0 0
35.2295 0 0
35.2295 0 0
35.3264 0 0
35.3264 0 0
35.4233 0 0
35.4233 0 0
35.5203 0 0
35.5203 0 0
35.6172 0 0
35.6172 0 0
35.7141 0 0
35.7141 0 0
35.811 0 0
35.811 0 0
35.908 0 0
35.908 0 0
36.0049 0 0
36.0049 0 0
36.1018 0 0
36.1018 0 0
36.1987 0 0
36.1987 0 0
36.2957 0 0
36.2957 0 0
36.3926 0 0
36.3926 0 0
36.4895 0 0
36.4895 0 0
36.5864 0 0
36.5864 0 0
36.6833 0 0
36.6833 0 0
36.7803 0 0
36.7803 0 0
36.8772 0 0
36.8772 0 0
36.9741 0 0
36.9741 0 0
37.071 0 0
37.071 0 0
37.168 0 0
37.168 0 0
37.2649 0 0
37.2649 0 0
37.3618 0 0
37.3618 0 0
37.4587 0 0
37.4587 0 0
37.5557 0 0
37.5557 0 0
37.6526 0 0
37.6526 0 0
37.7495 0 0
37.7495 0 0
37.8464 0 0
37.8464 0 0
37.9434 0 0
37.9434 0 0
38.0403 0 0
38.0403 0 0
38.1372 0 0
38.1372 0 0
38.2341 0 0
38.2341 0 0
38.3311 0 0
38.3311 0 0
38.428 0 0
38.428 0 0
38.5249 0 0
38.5249 0 0
38.6218 0 0
38.6218 0 0
38.7188 0 0
38.7188 0 0
38.8157 0 0
38.8157 0 0
38.9126 0 0
38.9126 0 0
39.0095 0 0
39.0095 0 0
39.1064 0 0
39.1064 0 0
39.2034 0 0
39.2034 0 0
39.3003 0 0
39.3003 0 0
39.3972 0 0
39.3972 0 0
39.4941 0 0
39.4941 0 0
39.5911 0 0
39.5911 0 0
39.688 0 0
39.688 0 0
39.7849 0 0
39.7849 0 0
39.8818 0 0
39.8818 0 0
39.9788 0 0
39.9788 0 0
40.0757 0 0
40.0757 0 0
40.1726 0 0
40.1726 0 0
40.2695 0 0
40.2695 0 0
40.3665 0 0
40.3665 0 0
40.4634 0 0
40.4634 0 0
40.5603 0 0
40.5603 0 0
40.6572 0 0
40.6572 0 0
40.7542 0 0
40.7542 0 0
40.8511 0 0
40.8511 0 0
40.948 0 0
40.948 0 0
41.0449 0 0
41.0449 0 0
41.1418 0 0
41.1418 0 0
41.2388 0 0
41.2388 0 0
41.3357 0 0
41.3357 0 0
41.4326 0 0
41.4326 0 0
41.5295 0 0
41.5295 0 0
[...]
POINT_DATA 4096
SCALARS solution_0 double 1
LOOKUP_TABLE default
2072.99 2030 2030 1993.76 1993.76 1962.87 1962.87 1936.31 1936.31 1913.26 1913.26 1893.08 1893.08 1875.26 1875.26 1859.4 1859.4 1845.17 1845.17 1832.3 1832.3 1820.57 1820.57 1809.81 1809.81 1799.85 1799.85 1790.57 1790.57 1781.87 1781.87 1773.65 1773.65 1765.85 1765.85 1758.39 1758.39 1751.23 1751.23 1744.31 1744.31 1737.6 1737.6 1731.06 1731.06 1724.67 1724.67 1718.39 1718.39 1712.2 1712.2 1706.09 1706.09 1700.05 1700.05 1694.05 1694.05 1688.08 1688.08 1682.13 1682.13 1676.21 1676.21 1670.29 1670.29 1664.37 1664.37 1658.44 1658.44 1652.51 1652.51 1646.56 1646.56 1640.6 1640.6 1634.62 1634.62 1628.62 1628.62 1622.59 1622.59 1616.54 1616.54 1610.47 1610.47 1604.37 1604.37 1598.24 1598.24 1592.09 1592.09 1585.91 1585.91 1579.7 1579.7 1573.47 1573.47 1567.2 1567.2 1560.92 1560.92 1554.61 1554.61 1548.27 1548.27 1541.91 1541.91 1535.53 1535.53 1529.13 1529.13 1522.7 1522.7 1516.26 1516.26 1509.79 1509.79 1503.31 1503.31 1496.81 1496.81 1490.29 1490.29 1483.76 1483.76 1477.22 1477.22 1470.66 1470.66 1464.09 1464.09 1457.51 1457.51 1450.92 1450.92 1444.32 1444.32 1437.72 1437.72 1431.1 1431.1 1424.48 1424.48 1417.86 1417.86 1411.23 1411.23 1404.6 1404.6 1397.97 1397.97 1391.33 1391.33 1384.7 1384.7 1378.07 1378.07 1371.44 1371.44 1364.81 1364.81 1358.18 1358.18 1351.56 1351.56 1344.95 1344.95 1338.33 1338.33 1331.73 1331.73 1325.13 1325.13 1318.55 1318.55 1311.96 1311.96 1305.39 1305.39 1298.83 1298.83 1292.28 1292.28 1285.74 1285.74 1279.22 1279.22 1272.7 1272.7 1266.2 1266.2 1259.71 1259.71 1253.24 1253.24 1246.78 1246.78 1240.34 1240.34 1233.91 1233.91 1227.5 1227.5 1221.1 1221.1 1214.73 1214.73 1208.37 1208.37 1202.02 1202.02 1195.7 1195.7 1189.39 1189.39 1183.11 1183.11 1176.84 1176.84 1170.6 1170.6 1164.37 1164.37 1158.16 1158.16 1151.98 1151.98 1145.81 1145.81 1139.67 1139.67 1133.55 1133.55 1127.45 1127.45 1121.38 1121.38 1115.32 1115.32 1109.29 1109.29 1103.28 1103.28 1097.3 1097.3 1091.34 1091.34 1085.4 1085.4 1079.48 1079.48 1073.59 1073.59 1067.73 1067.73 1061.89 1061.89 1056.07 1056.07 1050.28 1050.28 1044.51 1044.51 1038.77 1038.77 1033.05 1033.05 1027.36 1027.36 1021.69 1021.69 1016.05 1016.05 1010.43 1010.43 1004.84 1004.84 999.273 999.273 993.733 993.733 988.219 988.219 982.73 982.73 977.268 977.268 971.831 971.831 966.42 966.42 961.036 961.036 955.677 955.677 950.344 950.344 945.038 945.038 939.758 939.758 934.503 934.503 929.275 929.275 924.073 924.073 918.898 918.898 913.748 913.748 908.624 908.624 903.527 903.527 898.456 898.456 893.411 893.411 888.392 888.392 883.399 883.399 878.432 878.432 873.491 873.491 868.576 868.576 863.687 863.687 858.824 858.824 853.987 853.987 849.175 849.175 844.39 844.39 839.63 839.63 834.896 834.896 830.187 830.187 825.504 825.504 820.846 820.846 816.214 816.214 811.607 811.607 807.026 807.026 802.469 802.469 797.938 797.938 793.432 793.432 788.951 788.951 784.495 784.495 780.064 780.064 775.657 775.657 771.276 771.276 766.919 766.919 762.586 762.586 758.278 758.278 753.994 753.994 749.734 749.734 745.499 745.499 741.288 741.288 737.1 737.1 732.937 732.937 728.798 728.798 724.682 724.682 720.59 720.59 716.521 716.521 712.476 712.476 708.454 708.454 704.455 704.455 700.479 700.479 696.527 696.527 692.597 692.597 688.691 688.691 684.807 684.807 680.945 680.945 677.106 677.106 673.29 673.29 669.496 669.496 665.724 665.724 661.974 661.974 658.246 658.246 654.54 654.54 650.856 650.856 647.194 647.194 643.553 643.553 639.933 639.933 636.335 636.335 632.759 632.759 629.203 629.203 625.668 625.668 622.155 622.155 618.662 618.662 615.19 615.19 611.738 611.738 608.307 608.307 604.896 604.896 601.506 601.506 598.135 598.135 594.785 594.785 591.455 591.455 588.145 588.145 584.854 584.854 581.583 581.583 578.331 578.331 575.099 575.099 571.886 571.886 568.693 568.693 565.518 565.518 562.363 562.363 559.226 559.226 556.108 556.108 553.009 553.009 549.928 549.928 546.866 546.866 543.822 543.822 540.796 540.796 537.788 537.788 534.799 534.799 531.827 531.827 528.873 528.873 525.937 525.937 523.019 523.019 520.117 520.117 517.234 517.234 514.367 514.367 511.518 511.518 508.686 508.686 505.871 505.871 503.073 503.073 500.291 500.291 497.526 497.526 494.778 494.778 492.046 492.046 489.331 489.331 486.632 486.632 483.949 483.949 481.282 481.282 478.631 478.631 475.996 475.996 473.377 473.377 470.773 470.773 468.185 468.185 465.613 465.613 463.056 463.056 460.514 460.514 457.988 457.988 455.476 455.476 452.98 452.98 450.498 450.498 448.031 448.031 445.579 445.579 443.142 443.142 440.719 440.719 438.311 438.311 435.917 435.917 433.537 433.537 431.171 431.171 428.82 428.82 426.483 426.483 424.159 424.159 421.849 421.849 419.553 419.553 417.271 417.271 415.002 415.002 412.747 412.747 410.505 410.505 408.276 408.276 406.061 406.061 403.859 403.859 401.67 401.67 399.493 399.493 397.33 397.33 395.179 395.179 393.042 393.042 390.916 390.916 388.804 388.804 386.703 386.703 384.616 384.616 382.54 382.54 380.477 380.477 378.426 378.426 376.387 376.387 374.36 374.36 372.344 372.344 370.341 370.341 368.35 368.35 366.37 366.37 364.401 364.401 362.445 362.445 360.499 360.499 358.565 358.565 356.643 356.643 354.731 354.731 352.831 352.831 350.942 350.942 349.064 349.064 347.197 347.197 345.34 345.34 343.495 343.495 341.66 341.66 339.836 339.836 338.022 338.022 336.219 336.219 334.427 334.427 332.645 332.645 330.873 330.873 329.111 329.111 327.36 327.36 325.618 325.618 323.887 323.887 322.166 322.166 320.454 320.454 318.753 318.753 317.061 317.061 315.379 315.379 313.706 313.706 312.044 312.044 310.39 310.39 308.746 308.746 307.112 307.112 305.487 305.487 303.871 303.871 302.265 302.265 300.667 300.667 299.079 299.079 297.5 297.5 295.93 295.93 294.368 294.368 292.816 292.816 291.272 291.272 289.738 289.738 288.211 288.211 286.694 286.694 285.185 285.185 283.685 283.685 282.193 282.193 280.709 280.709 279.234 279.234 277.767 277.767 276.308 276.308 274.858 274.858 273.416 273.416 271.981 271.981 270.555 270.555 269.136 269.136 267.726 267.726 266.323 266.323 264.928 264.928 263.54 263.54 262.16 262.16 260.788 260.788 259.423 259.423 258.066 258.066 256.716 256.716 255.373 255.373 254.037 254.037 252.709 252.709 251.388 251.388 250.074 250.074 248.767 248.767 247.468 247.468 246.175 246.175 244.889 244.889 243.61 243.61 242.338 242.338 241.073 241.073 239.814 239.814 238.562 238.562 237.317 237.317 236.079 236.079 234.846 234.846 233.621 233.621 232.401 232.401 231.188 231.188 229.981 229.981 228.78 228.78 227.585 227.585 226.395 226.395 225.211 225.211 224.032 224.032 222.858 222.858 221.688 221.688 220.523 220.523 219.363 219.363 218.206 218.206 217.053 217.053 215.904 215.904 214.758 214.758 213.616 213.616 212.477 212.477 211.341 211.341 210.209 210.209 209.081 209.081 207.958 207.958 206.839 206.839 205.726 205.726 204.618 204.618 203.517 203.517 202.424 202.424 201.339 201.339 200.263 200.263 199.196 199.196 198.141 198.141 197.097 197.097 196.064 196.064 195.045 195.045 194.038 194.038 193.045 193.045 192.065 192.065 191.1 191.1 190.148 190.148 189.211 189.211 188.288 188.288 187.379 187.379 186.485 186.485 185.604 185.604 184.738 184.738 183.886 183.886 183.047 183.047 182.222 182.222 181.409 181.409 180.609 180.609 179.821 179.821 179.044 179.044 178.277 178.277 177.519 177.519 176.769 176.769 176.024 176.024 175.285 175.285 174.548 174.548 173.813 173.813 173.078 173.078 172.34 172.34 171.599 171.599 170.851 170.851 170.096 170.096 169.332 169.332 168.558 168.558 167.772 167.772 166.973 166.973 166.161 166.161 165.335 165.335 164.494 164.494 163.64 163.64 162.771 162.771 161.889 161.889 160.994 160.994 160.088 160.088 159.172 159.172 158.247 158.247 157.315 157.315 156.377 156.377 155.436 155.436 154.493 154.493 153.551 153.551 152.61 152.61 151.673 151.673 150.741 150.741 149.815 149.815 148.898 148.898 147.99 147.99 147.092 147.092 146.204 146.204 145.329 145.329 144.465 144.465 143.613 143.613 142.774 142.774 141.946 141.946 141.131 141.131 140.327 140.327 139.534 139.534 138.752 138.752 137.981 137.981 137.219 137.219 136.466 136.466 135.722 135.722 134.986 134.986 134.257 134.257 133.535 133.535 132.82 132.82 132.111 132.111 131.407 131.407 130.709 130.709 130.016 130.016 129.327 129.327 128.643 128.643 127.963 127.963 127.287 127.287 126.615 126.615 125.946 125.946 125.281 125.281 124.62 124.62 123.962 123.962 123.308 123.308 122.657 122.657 122.009 122.009 121.364 121.364 120.722 120.722 120.084 120.084 119.448 119.448 118.816 118.816 118.187 118.187 117.561 117.561 116.938 116.938 116.317 116.317 115.7 115.7 115.086 115.086 114.475 114.475 113.866 113.866 113.261 113.261 112.658 112.658 112.059 112.059 111.462 111.462 110.868 110.868 110.276 110.276 109.688 109.688 109.102 109.102 108.519 108.519 107.939 107.939 107.362 107.362 106.787 106.787 106.215 106.215 105.646 105.646 105.079 105.079 104.515 104.515 103.953 103.953 103.395 103.395 102.838 102.838 102.285 102.285 101.734 101.734 101.185 101.185 100.639 100.639 100.096 100.096 99.5548 99.5548 99.0164 99.0164 98.4804 98.4804 97.9469 97.9469 97.4159 97.4159 96.8873 96.8873 96.3611 96.3611 95.8373 95.8373 95.3159 95.3159 94.7969 94.7969 94.2803 94.2803 93.766 93.766 93.254 93.254 92.7444 92.7444 92.2371 92.2371 91.732 91.732 91.2293 91.2293 90.7288 90.7288 90.2306 90.2306 89.7346 89.7346 89.2409 89.2409 88.7494 88.7494 88.2601 88.2601 87.7729 87.7729 87.288 87.288 86.8052 86.8052 86.3246 86.3246 85.8462 85.8462 85.3698 85.3698 84.8956 84.8956 84.4235 84.4235 83.9535 83.9535 83.4855 83.4855 83.0197 83.0197 82.5559 82.5559 82.0941 82.0941 81.6344 81.6344 81.1767 81.1767 80.721 80.721 80.2673 80.2673 79.8157 79.8157 79.366 79.366 78.9182 78.9182 78.4725 78.4725 78.0286 78.0286 77.5867 77.5867 77.1468 77.1468 76.7087 76.7087 76.2726 76.2726 75.8383 75.8383 75.406 75.406 74.9755 74.9755 74.5469 74.5469 74.1201 74.1201 73.6952 73.6952 73.2721 73.2721 72.8508 72.8508 72.4313 72.4313 72.0137 72.0137 71.5978 71.5978 71.1837 71.1837 70.7714 70.7714 70.3609 70.3609 69.9521 69.9521 69.545 69.545 69.1397 69.1397 68.7361 68.7361 68.3343 68.3343 67.9341 67.9341 67.5357 67.5357 67.1389 67.1389 66.7438 66.7438 66.3504 66.3504 65.9586 65.9586 65.5685 65.5685 65.1801 65.1801 64.7932 64.7932 64.408 64.408 64.0245 64.0245 63.6425 63.6425 63.2621 63.2621 62.8834 62.8834 62.5062 62.5062 62.1306 62.1306 61.7565 61.7565 61.384 61.384 61.0131 61.0131 60.6437 60.6437 60.2759 60.2759 59.9095 59.9095 59.5447 59.5447 59.1814 59.1814 58.8197 58.8197 58.4594 58.4594 58.1006 58.1006 57.7432 57.7432 57.3874 57.3874 57.033 57.033 56.6801 56.6801 56.3286 56.3286 55.9785 55.9785 55.6299 55.6299 55.2828 55.2828 54.937 54.937 54.5927 54.5927 54.2497 54.2497 53.9082 53.9082 53.5681 53.5681 53.2293 53.2293 52.8919 52.8919 52.5559 52.5559 52.2212 52.2212 51.8879 51.8879 51.556 51.556 51.2254 51.2254 50.8961 50.8961 50.5682 50.5682 50.2416 50.2416 49.9163 49.9163 49.5923 49.5923 49.2696 49.2696 48.9482 48.9482 48.6281 48.6281 48.3093 48.3093 47.9918 47.9918 47.6755 47.6755 47.3605 47.3605 47.0467 47.0467 46.7342 46.7342 46.423 46.423 46.113 46.113 45.8042 45.8042 45.4966 45.4966 45.1903 45.1903 44.8852 44.8852 44.5813 44.5813 44.2786 44.2786 43.9771 43.9771 43.6768 43.6768 43.3776 43.3776 43.0797 43.0797 42.7829 42.7829 42.4873 42.4873 42.1928 42.1928 41.8995 41.8995 41.6074 41.6074 41.3164 41.3164 41.0265 41.0265 40.7378 40.7378 40.4502 40.4502 40.1638 40.1638 39.8784 39.8784 39.5942 39.5942 39.311 39.311 39.029 39.029 38.7481 38.7481 38.4682 38.4682 38.1895 38.1895 37.9118 37.9118 37.6352 37.6352 37.3596 37.3596 37.0852 37.0852 36.8118 36.8118 36.5394 36.5394 36.2681 36.2681 35.9979 35.9979 35.7286 35.7286 35.4605 35.4605 35.1933 35.1933 34.9272 34.9272 34.6621 34.6621 34.398 34.398 34.1349 34.1349 33.8728 33.8728 33.6118 33.6118 33.3517 33.3517 33.0926 33.0926 32.8345 32.8345 32.5774 32.5774 32.3213 32.3213 32.0661 32.0661 31.8119 31.8119 31.5587 31.5587 31.3064 31.3064 31.0551 31.0551 30.8048 30.8048 30.5553 30.5553 30.3069 30.3069 30.0593 30.0593 29.8127 29.8127 29.5671 29.5671 29.3223 29.3223 29.0785 29.0785 28.8356 28.8356 28.5936 28.5936 28.3525 28.3525 28.1123 28.1123 27.873 27.873 27.6347 27.6347 27.3972 27.3972 27.1606 27.1606 26.9248 26.9248 26.69 26.69 26.456 26.456 26.2229 26.2229 25.9907 25.9907 25.7593 25.7593 25.5288 25.5288 25.2992 25.2992 25.0704 25.0704 24.8424 24.8424 24.6153 24.6153 24.389 24.389 24.1636 24.1636 23.939 23.939 23.7152 23.7152 23.4923 23.4923 23.2702 23.2702 23.0489 23.0489 22.8284 22.8284 22.6087 22.6087 22.3898 22.3898 22.1718 22.1718 21.9545 21.9545 21.738 21.738 21.5223 21.5223 21.3075 21.3075 21.0933 21.0933 20.88 20.88 20.6675 20.6675 20.4557 20.4557 20.2447 20.2447 20.0345 20.0345 19.825 19.825 19.6163 19.6163 19.4084 19.4084 19.2012 19.2012 18.9948 18.9948 18.7891 18.7891 18.5841 18.5841 18.3799 18.3799 18.1765 18.1765 17.9738 17.9738 17.7718 17.7718 17.5705 17.5705 17.37 17.37 17.1702 17.1702 16.9711 16.9711 16.7727 16.7727 16.575 16.575 16.3781 16.3781 16.1818 16.1818 15.9863 15.9863 15.7914 15.7914 15.5973 15.5973 15.4038 15.4038 15.2111 15.2111 15.019 15.019 14.8276 14.8276 14.6369 14.6369 14.4469 14.4469 14.2576 14.2576 14.0689 14.0689 13.8809 13.8809 13.6936 13.6936 13.5069 13.5069 13.3209 13.3209 13.1356 13.1356 12.9509 12.9509 12.7669 12.7669 12.5835 12.5835 12.4008 12.4008 12.2187 12.2187 12.0373 12.0373 11.8565 11.8565 11.6763 11.6763 11.4968 11.4968 11.3179 11.3179 11.1397 11.1397 10.962 10.962 10.785 10.785 10.6087 10.6087 10.4329 10.4329 10.2578 10.2578 10.0832 10.0832 9.90931 9.90931 9.736 9.736 9.5633 9.5633 9.3912 9.3912 9.2197 9.2197 9.04881 9.04881 8.87851 8.87851 8.7088 8.7088 8.53969 8.53969 8.37116 8.37116 8.20323 8.20323 8.03587 8.03587 7.8691 7.8691 7.70291 7.70291 7.53729 7.53729 7.37226 7.37226 7.20779 7.20779 7.04389 7.04389 6.88056 6.88056 6.7178 6.7178 6.5556 6.5556 6.39396 6.39396 6.23288 6.23288 6.07236 6.07236 5.91238 5.91238 5.75297 5.75297 5.5941 5.5941 5.43578 5.43578 5.278 5.278 5.12076 5.12076 4.96407 4.96407 4.80792 4.80792 4.6523 4.6523 4.49721 4.49721 4.34266 4.34266 4.18864 4.18864 4.03514 4.03514 3.88217 3.88217 3.72973 3.72973 3.5778 3.5778 3.42639 3.42639 3.27551 3.27551 3.12513 3.12513 2.97527 2.97527 2.82592 2.82592 2.67708 2.67708 2.52875 2.52875 2.38092 2.38092 2.23359 2.23359 2.08676 2.08676 1.94043 1.94043 1.7946 1.7946 1.64927 1.64927 1.50442 1.50442 1.36007 1.36007 1.21621 1.21621 1.07283 1.07283 0.929942 0.929942 0.787533 0.787533 0.645606 0.645606 0.504158 0.504158 0.363188 0.363188 0.222693 0.222693 0.0826721 0.0826721 -0.0568772 -0.0568772 -0.195957 -0.195957 -0.334568 -0.334568 -0.472713 -0.472713 -0.610394 -0.610394 -0.747612 -0.747612 -0.884369 -0.884369 -1.02067 -1.02067 -1.15651 -1.15651 -1.29189 -1.29189 -1.42683 -1.42683 -1.56131 -1.56131 -1.69534 -1.69534 -1.82892 -1.82892 -1.96205 -1.96205 -2.09474 -2.09474 -2.22699 -2.22699 -2.3588 -2.3588 -2.49016 -2.49016 -2.62109 -2.62109 -2.75158 -2.75158 -2.88164 -2.88164 -3.01127 -3.01127 -3.14046 -3.14046 -3.26922 -3.26922 -3.39756 -3.39756 -3.52547 -3.52547 -3.65295 -3.65295 -3.78001 -3.78001 -3.90665 -3.90665 -4.03287 -4.03287 -4.15867 -4.15867 -4.28406 -4.28406 -4.40903 -4.40903 -4.53359 -4.53359 -4.65773 -4.65773 -4.78147 -4.78147 -4.90479 -4.90479 -5.02771 -5.02771 -5.15023 -5.15023 -5.27234 -5.27234 -5.39404 -5.39404 -5.51535 -5.51535 -5.63626 -5.63626 -5.75676 -5.75676 -5.87688 -5.87688 -5.99659 -5.99659 -6.11592 -6.11592 -6.23485 -6.23485 -6.35339 -6.35339 -6.47154 -6.47154 -6.58931 -6.58931 -6.70669 -6.70669 -6.82368 -6.82368 -6.94029 -6.94029 -7.05652 -7.05652 -7.17237 -7.17237 -7.28784 -7.28784 -7.40294 -7.40294 -7.51765 -7.51765 -7.63199 -7.63199 -7.74596 -7.74596 -7.85956 -7.85956 -7.97279 -7.97279 -8.08564 -8.08564 -8.19813 -8.19813 -8.31026 -8.31026 -8.42202 -8.42202 -8.53341 -8.53341 -8.64444 -8.64444 -8.75511 -8.75511 -8.86543 -8.86543 -8.97538 -8.97538 -9.08498 -9.08498 -9.19422 -9.19422 -9.3031 -9.3031 -9.41164 -9.41164 -9.51982 -9.51982 -9.62765 -9.62765 -9.73514 -9.73514 -9.84227 -9.84227 -9.94906 -9.94906 -10.0555 -10.0555 -10.1616 -10.1616 -10.2674 -10.2674 -10.3728 -10.3728 -10.4778 -10.4778 -10.5826 -10.5826 -10.687 -10.687 -10.791 -10.791 -10.8948 -10.8948 -10.9982 -10.9982 -11.1012 -11.1012 -11.204 -11.204 -11.3063 -11.3063 -11.4084 -11.4084 -11.5102 -11.5102 -11.6116 -11.6116 -11.7127 -11.7127 -11.8134 -11.8134 -11.9139 -11.9139 -12.014 -12.014 -12.1138 -12.1138 -12.2133 -12.2133 -12.3124 -12.3124 -12.4113 -12.4113 -12.5098 -12.5098 -12.608 -12.608 -12.7059 -12.7059 -12.8035 -12.8035 -12.9007 -12.9007 -12.9977 -12.9977 -13.0943 -13.0943 -13.1907 -13.1907 -13.2867 -13.2867 -13.3825 -13.3825 -13.4779 -13.4779 -13.573 -13.573 -13.6678 -13.6678 -13.7623 -13.7623 -13.8565 -13.8565 -13.9505 -13.9505 -14.0441 -14.0441 -14.1374 -14.1374 -14.2304 -14.2304 -14.3231 -14.3231 -14.4156 -14.4156 -14.5077 -14.5077 -14.5995 -14.5995 -14.6911 -14.6911 -14.7824 -14.7824 -14.8733 -14.8733 -14.964 -14.964 -15.0544 -15.0544 -15.1445 -15.1445 -15.2344 -15.2344 -15.3239 -15.3239 -15.4132 -15.4132 -15.5021 -15.5021 -15.5908 -15.5908 -15.6793 -15.6793 -15.7674 -15.7674 -15.8553 -15.8553 -15.9428 -15.9428 -16.0301 -16.0301 -16.1172 -16.1172 -16.2039 -16.2039 -16.2904 -16.2904 -16.3766 -16.3766 -16.4626 -16.4626 -16.5482 -16.5482 -16.6336 -16.6336 -16.7187 -16.7187 -16.8036 -16.8036 -16.8882 -16.8882 -16.9725 -16.9725 -17.0566 -17.0566 -17.1404 -17.1404 -17.2239 -17.2239 -17.3072 -17.3072 -17.3902 -17.3902 -17.473 -17.473 -17.5555 -17.5555 -17.6377 -17.6377 -17.7197 -17.7197 -17.8014 -17.8014 -17.8829 -17.8829 -17.9641 -17.9641 -18.045 -18.045 -18.1257 -18.1257 -18.2062 -18.2062 -18.2864 -18.2864 -18.3663 -18.3663 -18.446 -18.446 -18.5255 -18.5255 -18.6047 -18.6047 -18.6836 -18.6836 -18.7623 -18.7623 -18.8408 -18.8408 -18.919 -18.919 -18.997 -18.997 -19.0747 -19.0747 -19.1522 -19.1522 -19.2294 -19.2294 -19.3064 -19.3064 -19.3832 -19.3832 -19.4597 -19.4597 -19.536 -19.536 -19.6121 -19.6121 -19.6879 -19.6879 -19.7634 -19.7634 -19.8388 -19.8388 -19.9139 -19.9139 -19.9888 -19.9888 -20.0634 -20.0634 -20.1378 -20.1378 -20.212 -20.212 -20.286 -20.286 -20.3597 -20.3597 -20.4332 -20.4332 -20.5064 -20.5064 -20.5795 -20.5795 -20.6523 -20.6523 -20.7249 -20.7249 -20.7972 -20.7972 -20.8694 -20.8694 -20.9413 -20.9413 -21.013 -21.013 -21.0844 -21.0844 -21.1557 -21.1557 -21.2267 -21.2267 -21.2975 -21.2975 -21.3681 -21.3681 -21.4385 -21.4385 -21.5086 -21.5086 -21.5785 -21.5785 -21.6483 -21.6483 -21.7178 -21.7178 -21.7871 -21.7871 -21.8561 -21.8561 -21.925 -21.925 -21.9936 -21.9936 -22.0621 -22.0621 -22.1303 -22.1303 -22.1983 -22.1983 -22.2661 -22.2661 -22.3337 -22.3337 -22.4011 -22.4011 -22.4683 -22.4683 -22.5353 -22.5353 -22.602 -22.602 -22.6686 -22.6686 -22.735 -22.735 -22.8011 -22.8011 -22.8671 -22.8671 -22.9328 -22.9328 -22.9984 -22.9984 -23.0637 -23.0637 -23.1288 -23.1288 -23.1938 -23.1938 -23.2585 -23.2585 -23.3231 -23.3231 -23.3874 -23.3874 -23.4516 -23.4516 -23.5155 -23.5155 -23.5793 -23.5793 -23.6428 -23.6428 -23.7062 -23.7062 -23.7694 -23.7694 -23.8324 -23.8324 -23.8951 -23.8951 -23.9577 -23.9577 -24.0201 -24.0201 -24.0823 -24.0823 -24.1444 -24.1444 -24.2062 -24.2062 -24.2678 -24.2678 -24.3293 -24.3293 -24.3905 -24.3905 -24.4516 -24.4516 -24.5125 -24.5125 -24.5732 -24.5732 -24.6337 -24.6337 -24.694 -24.694 -24.7542 -24.7542 -24.8142 -24.8142 -24.8739 -24.8739 -24.9335 -24.9335 -24.9929 -24.9929 -25.0522 -25.0522 -25.1112 -25.1112 -25.1701 -25.1701 -25.2288 -25.2288 -25.2873 -25.2873 -25.3456 -25.3456 -25.4038 -25.4038 -25.4618 -25.4618 -25.5196 -25.5196 -25.5772 -25.5772 -25.6346 -25.6346 -25.6919 -25.6919 -25.749 -25.749 -25.8059 -25.8059 -25.8627 -25.8627 -25.9193 -25.9193 -25.9757 -25.9757 -26.0319 -26.0319 -26.088 -26.088 -26.1438 -26.1438 -26.1996 -26.1996 -26.2551 -26.2551 -26.3105 -26.3105 -26.3657 -26.3657 -26.4208 -26.4208 -26.4756 -26.4756 -26.5303 -26.5303 -26.5849 -26.5849 -26.6393 -26.6393 -26.6935 -26.6935 -26.7475 -26.7475 -26.8014 -26.8014 -26.8551 -26.8551 -26.9087 -26.9087 -26.9621 -26.9621 -27.0153 -27.0153 -27.0684 -27.0684 -27.1213 -27.1213 -27.174 -27.1