# vtk DataFile Version 3.0
#This file was generated by the deal.II library on 2020/9/6 at 2:52:08
ASCII
DATASET UNSTRUCTURED_GRID

POINTS 4096 double
1.5 0 0
1.59692 0 0
1.59692 0 0
1.69385 0 0
1.69385 0 0
1.79077 0 0
1.79077 0 0
1.8877 0 0
1.8877 0 0
1.98462 0 0
1.98462 0 0
2.08154 0 0
2.08154 0 0
2.17847 0 0
2.17847 0 0
2.27539 0 0
2.27539 0 0
2.37231 0 0
2.37231 0 0
2.46924 0 0
2.46924 0 0
2.56616 0 0
2.56616 0 0
2.66309 0 0
2.66309 0 0
2.76001 0 0
2.76001 0 0
2.85693 0 0
2.85693 0 0
2.95386 0 0
2.95386 0 0
3.05078 0 0
3.05078 0 0
3.14771 0 0
3.14771 0 0
3.24463 0 0
3.24463 0 0
3.34155 0 0
3.34155 0 0
3.43848 0 0
3.43848 0 0
3.5354 0 0
3.5354 0 0
3.63232 0 0
3.63232 0 0
3.72925 0 0
3.72925 0 0
3.82617 0 0
3.82617 0 0
3.9231 0 0
3.9231 0 0
4.02002 0 0
4.02002 0 0
4.11694 0 0
4.11694 0 0
4.21387 0 0
4.21387 0 0
4.31079 0 0
4.31079 0 0
4.40771 0 0
4.40771 0 0
4.50464 0 0
4.50464 0 0
4.60156 0 0
4.60156 0 0
4.69849 0 0
4.69849 0 0
4.79541 0 0
4.79541 0 0
4.89233 0 0
4.89233 0 0
4.98926 0 0
4.98926 0 0
5.08618 0 0
5.08618 0 0
5.18311 0 0
5.18311 0 0
5.28003 0 0
5.28003 0 0
5.37695 0 0
5.37695 0 0
5.47388 0 0
5.47388 0 0
5.5708 0 0
5.5708 0 0
5.66772 0 0
5.66772 0 0
5.76465 0 0
5.76465 0 0
5.86157 0 0
5.86157 0 0
5.9585 0 0
5.9585 0 0
6.05542 0 0
6.05542 0 0
6.15234 0 0
6.15234 0 0
6.24927 0 0
6.24927 0 0
6.34619 0 0
6.34619 0 0
6.44312 0 0
6.44312 0 0
6.54004 0 0
6.54004 0 0
6.63696 0 0
6.63696 0 0
6.73389 0 0
6.73389 0 0
6.83081 0 0
6.83081 0 0
6.92773 0 0
6.92773 0 0
7.02466 0 0
7.02466 0 0
7.12158 0 0
7.12158 0 0
7.21851 0 0
7.21851 0 0
7.31543 0 0
7.31543 0 0
7.41235 0 0
7.41235 0 0
7.50928 0 0
7.50928 0 0
7.6062 0 0
7.6062 0 0
7.70312 0 0
7.70312 0 0
7.80005 0 0
7.80005 0 0
7.89697 0 0
7.89697 0 0
7.9939 0 0
7.9939 0 0
8.09082 0 0
8.09082 0 0
8.18774 0 0
8.18774 0 0
8.28467 0 0
8.28467 0 0
8.38159 0 0
8.38159 0 0
8.47852 0 0
8.47852 0 0
8.57544 0 0
8.57544 0 0
8.67236 0 0
8.67236 0 0
8.76929 0 0
8.76929 0 0
8.86621 0 0
8.86621 0 0
8.96313 0 0
8.96313 0 0
9.06006 0 0
9.06006 0 0
9.15698 0 0
9.15698 0 0
9.25391 0 0
9.25391 0 0
9.35083 0 0
9.35083 0 0
9.44775 0 0
9.44775 0 0
9.54468 0 0
9.54468 0 0
9.6416 0 0
9.6416 0 0
9.73853 0 0
9.73853 0 0
9.83545 0 0
9.83545 0 0
9.93237 0 0
9.93237 0 0
10.0293 0 0
10.0293 0 0
10.1262 0 0
10.1262 0 0
10.2231 0 0
10.2231 0 0
10.3201 0 0
10.3201 0 0
10.417 0 0
10.417 0 0
10.5139 0 0
10.5139 0 0
10.6108 0 0
10.6108 0 0
10.7078 0 0
10.7078 0 0
10.8047 0 0
10.8047 0 0
10.9016 0 0
10.9016 0 0
10.9985 0 0
10.9985 0 0
11.0955 0 0
11.0955 0 0
11.1924 0 0
11.1924 0 0
11.2893 0 0
11.2893 0 0
11.3862 0 0
11.3862 0 0
11.4832 0 0
11.4832 0 0
11.5801 0 0
11.5801 0 0
11.677 0 0
11.677 0 0
11.7739 0 0
11.7739 0 0
11.8708 0 0
11.8708 0 0
11.9678 0 0
11.9678 0 0
12.0647 0 0
12.0647 0 0
12.1616 0 0
12.1616 0 0
12.2585 0 0
12.2585 0 0
12.3555 0 0
12.3555 0 0
12.4524 0 0
12.4524 0 0
12.5493 0 0
12.5493 0 0
12.6462 0 0
12.6462 0 0
12.7432 0 0
12.7432 0 0
12.8401 0 0
12.8401 0 0
12.937 0 0
12.937 0 0
13.0339 0 0
13.0339 0 0
13.1309 0 0
13.1309 0 0
13.2278 0 0
13.2278 0 0
13.3247 0 0
13.3247 0 0
13.4216 0 0
13.4216 0 0
13.5186 0 0
13.5186 0 0
13.6155 0 0
13.6155 0 0
13.7124 0 0
13.7124 0 0
13.8093 0 0
13.8093 0 0
13.9062 0 0
13.9062 0 0
14.0032 0 0
14.0032 0 0
14.1001 0 0
14.1001 0 0
14.197 0 0
14.197 0 0
14.2939 0 0
14.2939 0 0
14.3909 0 0
14.3909 0 0
14.4878 0 0
14.4878 0 0
14.5847 0 0
14.5847 0 0
14.6816 0 0
14.6816 0 0
14.7786 0 0
14.7786 0 0
14.8755 0 0
14.8755 0 0
14.9724 0 0
14.9724 0 0
15.0693 0 0
15.0693 0 0
15.1663 0 0
15.1663 0 0
15.2632 0 0
15.2632 0 0
15.3601 0 0
15.3601 0 0
15.457 0 0
15.457 0 0
15.554 0 0
15.554 0 0
15.6509 0 0
15.6509 0 0
15.7478 0 0
15.7478 0 0
15.8447 0 0
15.8447 0 0
15.9417 0 0
15.9417 0 0
16.0386 0 0
16.0386 0 0
16.1355 0 0
16.1355 0 0
16.2324 0 0
16.2324 0 0
16.3293 0 0
16.3293 0 0
16.4263 0 0
16.4263 0 0
16.5232 0 0
16.5232 0 0
16.6201 0 0
16.6201 0 0
16.717 0 0
16.717 0 0
16.814 0 0
16.814 0 0
16.9109 0 0
16.9109 0 0
17.0078 0 0
17.0078 0 0
17.1047 0 0
17.1047 0 0
17.2017 0 0
17.2017 0 0
17.2986 0 0
17.2986 0 0
17.3955 0 0
17.3955 0 0
17.4924 0 0
17.4924 0 0
17.5894 0 0
17.5894 0 0
17.6863 0 0
17.6863 0 0
17.7832 0 0
17.7832 0 0
17.8801 0 0
17.8801 0 0
17.9771 0 0
17.9771 0 0
18.074 0 0
18.074 0 0
18.1709 0 0
18.1709 0 0
18.2678 0 0
18.2678 0 0
18.3647 0 0
18.3647 0 0
18.4617 0 0
18.4617 0 0
18.5586 0 0
18.5586 0 0
18.6555 0 0
18.6555 0 0
18.7524 0 0
18.7524 0 0
18.8494 0 0
18.8494 0 0
18.9463 0 0
18.9463 0 0
19.0432 0 0
19.0432 0 0
19.1401 0 0
19.1401 0 0
19.2371 0 0
19.2371 0 0
19.334 0 0
19.334 0 0
19.4309 0 0
19.4309 0 0
19.5278 0 0
19.5278 0 0
19.6248 0 0
19.6248 0 0
19.7217 0 0
19.7217 0 0
19.8186 0 0
19.8186 0 0
19.9155 0 0
19.9155 0 0
20.0125 0 0
20.0125 0 0
20.1094 0 0
20.1094 0 0
20.2063 0 0
20.2063 0 0
20.3032 0 0
20.3032 0 0
20.4001 0 0
20.4001 0 0
20.4971 0 0
20.4971 0 0
20.594 0 0
20.594 0 0
20.6909 0 0
20.6909 0 0
20.7878 0 0
20.7878 0 0
20.8848 0 0
20.8848 0 0
20.9817 0 0
20.9817 0 0
21.0786 0 0
21.0786 0 0
21.1755 0 0
21.1755 0 0
21.2725 0 0
21.2725 0 0
21.3694 0 0
21.3694 0 0
21.4663 0 0
21.4663 0 0
21.5632 0 0
21.5632 0 0
21.6602 0 0
21.6602 0 0
21.7571 0 0
21.7571 0 0
21.854 0 0
21.854 0 0
21.9509 0 0
21.9509 0 0
22.0479 0 0
22.0479 0 0
22.1448 0 0
22.1448 0 0
22.2417 0 0
22.2417 0 0
22.3386 0 0
22.3386 0 0
22.4355 0 0
22.4355 0 0
22.5325 0 0
22.5325 0 0
22.6294 0 0
22.6294 0 0
22.7263 0 0
22.7263 0 0
22.8232 0 0
22.8232 0 0
22.9202 0 0
22.9202 0 0
23.0171 0 0
23.0171 0 0
23.114 0 0
23.114 0 0
23.2109 0 0
23.2109 0 0
23.3079 0 0
23.3079 0 0
23.4048 0 0
23.4048 0 0
23.5017 0 0
23.5017 0 0
23.5986 0 0
23.5986 0 0
23.6956 0 0
23.6956 0 0
23.7925 0 0
23.7925 0 0
23.8894 0 0
23.8894 0 0
23.9863 0 0
23.9863 0 0
24.0833 0 0
24.0833 0 0
24.1802 0 0
24.1802 0 0
24.2771 0 0
24.2771 0 0
24.374 0 0
24.374 0 0
24.4709 0 0
24.4709 0 0
24.5679 0 0
24.5679 0 0
24.6648 0 0
24.6648 0 0
24.7617 0 0
24.7617 0 0
24.8586 0 0
24.8586 0 0
24.9556 0 0
24.9556 0 0
25.0525 0 0
25.0525 0 0
25.1494 0 0
25.1494 0 0
25.2463 0 0
25.2463 0 0
25.3433 0 0
25.3433 0 0
25.4402 0 0
25.4402 0 0
25.5371 0 0
25.5371 0 0
25.634 0 0
25.634 0 0
25.731 0 0
25.731 0 0
25.8279 0 0
25.8279 0 0
25.9248 0 0
25.9248 0 0
26.0217 0 0
26.0217 0 0
26.1187 0 0
26.1187 0 0
26.2156 0 0
26.2156 0 0
26.3125 0 0
26.3125 0 0
26.4094 0 0
26.4094 0 0
26.5063 0 0
26.5063 0 0
26.6033 0 0
26.6033 0 0
26.7002 0 0
26.7002 0 0
26.7971 0 0
26.7971 0 0
26.894 0 0
26.894 0 0
26.991 0 0
26.991 0 0
27.0879 0 0
27.0879 0 0
27.1848 0 0
27.1848 0 0
27.2817 0 0
27.2817 0 0
27.3787 0 0
27.3787 0 0
27.4756 0 0
27.4756 0 0
27.5725 0 0
27.5725 0 0
27.6694 0 0
27.6694 0 0
27.7664 0 0
27.7664 0 0
27.8633 0 0
27.8633 0 0
27.9602 0 0
27.9602 0 0
28.0571 0 0
28.0571 0 0
28.1541 0 0
28.1541 0 0
28.251 0 0
28.251 0 0
28.3479 0 0
28.3479 0 0
28.4448 0 0
28.4448 0 0
28.5417 0 0
28.5417 0 0
28.6387 0 0
28.6387 0 0
28.7356 0 0
28.7356 0 0
28.8325 0 0
28.8325 0 0
28.9294 0 0
28.9294 0 0
29.0264 0 0
29.0264 0 0
29.1233 0 0
29.1233 0 0
29.2202 0 0
29.2202 0 0
29.3171 0 0
29.3171 0 0
29.4141 0 0
29.4141 0 0
29.511 0 0
29.511 0 0
29.6079 0 0
29.6079 0 0
29.7048 0 0
29.7048 0 0
29.8018 0 0
29.8018 0 0
29.8987 0 0
29.8987 0 0
29.9956 0 0
29.9956 0 0
30.0925 0 0
30.0925 0 0
30.1895 0 0
30.1895 0 0
30.2864 0 0
30.2864 0 0
30.3833 0 0
30.3833 0 0
30.4802 0 0
30.4802 0 0
30.5771 0 0
30.5771 0 0
30.6741 0 0
30.6741 0 0
30.771 0 0
30.771 0 0
30.8679 0 0
30.8679 0 0
30.9648 0 0
30.9648 0 0
31.0618 0 0
31.0618 0 0
31.1587 0 0
31.1587 0 0
31.2556 0 0
31.2556 0 0
31.3525 0 0
31.3525 0 0
31.4495 0 0
31.4495 0 0
31.5464 0 0
31.5464 0 0
31.6433 0 0
31.6433 0 0
31.7402 0 0
31.7402 0 0
31.8372 0 0
31.8372 0 0
31.9341 0 0
31.9341 0 0
32.031 0 0
32.031 0 0
32.1279 0 0
32.1279 0 0
32.2249 0 0
32.2249 0 0
32.3218 0 0
32.3218 0 0
32.4187 0 0
32.4187 0 0
32.5156 0 0
32.5156 0 0
32.6125 0 0
32.6125 0 0
32.7095 0 0
32.7095 0 0
32.8064 0 0
32.8064 0 0
32.9033 0 0
32.9033 0 0
33.0002 0 0
33.0002 0 0
33.0972 0 0
33.0972 0 0
33.1941 0 0
33.1941 0 0
33.291 0 0
33.291 0 0
33.3879 0 0
33.3879 0 0
33.4849 0 0
33.4849 0 0
33.5818 0 0
33.5818 0 0
33.6787 0 0
33.6787 0 0
33.7756 0 0
33.7756 0 0
33.8726 0 0
33.8726 0 0
33.9695 0 0
33.9695 0 0
34.0664 0 0
34.0664 0 0
34.1633 0 0
34.1633 0 0
34.2603 0 0
34.2603 0 0
34.3572 0 0
34.3572 0 0
34.4541 0 0
34.4541 0 0
34.551 0 0
34.551 0 0
34.6479 0 0
34.6479 0 0
34.7449 0 0
34.7449 0 0
34.8418 0 0
34.8418 0 0
34.9387 0 0
34.9387 0 0
35.0356 0 0
35.0356 0 0
35.1326 0 0
35.1326 0 0
35.2295 0 0
35.2295 0 0
35.3264 0 0
35.3264 0 0
35.4233 0 0
35.4233 0 0
35.5203 0 0
35.5203 0 0
35.6172 0 0
35.6172 0 0
35.7141 0 0
35.7141 0 0
35.811 0 0
35.811 0 0
35.908 0 0
35.908 0 0
36.0049 0 0
36.0049 0 0
36.1018 0 0
36.1018 0 0
36.1987 0 0
36.1987 0 0
36.2957 0 0
36.2957 0 0
36.3926 0 0
36.3926 0 0
36.4895 0 0
36.4895 0 0
36.5864 0 0
36.5864 0 0
36.6833 0 0
36.6833 0 0
36.7803 0 0
36.7803 0 0
36.8772 0 0
36.8772 0 0
36.9741 0 0
36.9741 0 0
37.071 0 0
37.071 0 0
37.168 0 0
37.168 0 0
37.2649 0 0
37.2649 0 0
37.3618 0 0
37.3618 0 0
37.4587 0 0
37.4587 0 0
37.5557 0 0
37.5557 0 0
37.6526 0 0
37.6526 0 0
37.7495 0 0
37.7495 0 0
37.8464 0 0
37.8464 0 0
37.9434 0 0
37.9434 0 0
38.0403 0 0
38.0403 0 0
38.1372 0 0
38.1372 0 0
38.2341 0 0
38.2341 0 0
38.3311 0 0
38.3311 0 0
38.428 0 0
38.428 0 0
38.5249 0 0
38.5249 0 0
38.6218 0 0
38.6218 0 0
38.7188 0 0
38.7188 0 0
38.8157 0 0
38.8157 0 0
38.9126 0 0
38.9126 0 0
39.0095 0 0
39.0095 0 0
39.1064 0 0
39.1064 0 0
39.2034 0 0
39.2034 0 0
39.3003 0 0
39.3003 0 0
39.3972 0 0
39.3972 0 0
39.4941 0 0
39.4941 0 0
39.5911 0 0
39.5911 0 0
39.688 0 0
39.688 0 0
39.7849 0 0
39.7849 0 0
39.8818 0 0
39.8818 0 0
39.9788 0 0
39.9788 0 0
40.0757 0 0
40.0757 0 0
40.1726 0 0
40.1726 0 0
40.2695 0 0
40.2695 0 0
40.3665 0 0
40.3665 0 0
40.4634 0 0
40.4634 0 0
40.5603 0 0
40.5603 0 0
40.6572 0 0
40.6572 0 0
40.7542 0 0
40.7542 0 0
40.8511 0 0
40.8511 0 0
40.948 0 0
40.948 0 0
41.0449 0 0
41.0449 0 0
41.1418 0 0
41.1418 0 0
41.2388 0 0
41.2388 0 0
41.3357 0 0
41.3357 0 0
41.4326 0 0
41.4326 0 0
41.5295 0 0
41.5295 0 0
[...]
POINT_DATA 4096
SCALARS solution_0 double 1
LOOKUP_TABLE default
5130.03 5023.7 5023.7 4934.04 4934.04 4857.66 4857.66 4791.98 4791.98 4734.99 4734.99 4685.09 4685.09 4641.05 4641.05 4601.86 4601.86 4566.69 4566.69 4534.89 4534.89 4505.92 4505.92 4479.32 4479.32 4454.72 4454.72 4431.8 4431.8 4410.32 4410.32 4390.03 4390.03 4370.77 4370.77 4352.36 4352.36 4334.68 4334.68 4317.6 4317.6 4301.03 4301.03 4284.89 4284.89 4269.1 4269.1 4253.6 4253.6 4238.33 4238.33 4223.25 4223.25 4208.32 4208.32 4193.5 4193.5 4178.76 4178.76 4164.09 4164.09 4149.45 4149.45 4134.83 4134.83 4120.21 4120.21 4105.58 4105.58 4090.93 4090.93 4076.25 4076.25 4061.52 4061.52 4046.75 4046.75 4031.92 4031.92 4017.04 4017.04 4002.09 4002.09 3987.09 3987.09 3972.01 3972.01 3956.88 3956.88 3941.67 3941.67 3926.4 3926.4 3911.06 3911.06 3895.65 3895.65 3880.18 3880.18 3864.65 3864.65 3849.05 3849.05 3833.39 3833.39 3817.68 3817.68 3801.9 3801.9 3786.07 3786.07 3770.19 3770.19 3754.26 3754.26 3738.28 3738.28 3722.26 3722.26 3706.19 3706.19 3690.09 3690.09 3673.94 3673.94 3657.76 3657.76 3641.55 3641.55 3625.31 3625.31 3609.04 3609.04 3592.75 3592.75 3576.44 3576.44 3560.1 3560.1 3543.75 3543.75 3527.38 3527.38 3511.01 3511.01 3494.62 3494.62 3478.22 3478.22 3461.82 3461.82 3445.42 3445.42 3429.02 3429.02 3412.61 3412.61 3396.22 3396.22 3379.83 3379.83 3363.44 3363.44 3347.07 3347.07 3330.71 3330.71 3314.36 3314.36 3298.03 3298.03 3281.71 3281.71 3265.42 3265.42 3249.15 3249.15 3232.9 3232.9 3216.67 3216.67 3200.47 3200.47 3184.3 3184.3 3168.16 3168.16 3152.04 3152.04 3135.97 3135.97 3119.92 3119.92 3103.91 3103.91 3087.93 3087.93 3072 3072 3056.1 3056.1 3040.24 3040.24 3024.42 3024.42 3008.65 3008.65 2992.91 2992.91 2977.23 2977.23 2961.58 2961.58 2945.99 2945.99 2930.44 2930.44 2914.94 2914.94 2899.49 2899.49 2884.08 2884.08 2868.73 2868.73 2853.43 2853.43 2838.19 2838.19 2822.99 2822.99 2807.85 2807.85 2792.76 2792.76 2777.73 2777.73 2762.76 2762.76 2747.84 2747.84 2732.97 2732.97 2718.17 2718.17 2703.42 2703.42 2688.73 2688.73 2674.1 2674.1 2659.53 2659.53 2645.02 2645.02 2630.56 2630.56 2616.17 2616.17 2601.84 2601.84 2587.57 2587.57 2573.36 2573.36 2559.22 2559.22 2545.13 2545.13 2531.11 2531.11 2517.15 2517.15 2503.26 2503.26 2489.42 2489.42 2475.65 2475.65 2461.95 2461.95 2448.3 2448.3 2434.72 2434.72 2421.21 2421.21 2407.76 2407.76 2394.37 2394.37 2381.05 2381.05 2367.79 2367.79 2354.59 2354.59 2341.46 2341.46 2328.4 2328.4 2315.4 2315.4 2302.46 2302.46 2289.59 2289.59 2276.78 2276.78 2264.04 2264.04 2251.36 2251.36 2238.75 2238.75 2226.2 2226.2 2213.72 2213.72 2201.3 2201.3 2188.95 2188.95 2176.65 2176.65 2164.43 2164.43 2152.27 2152.27 2140.17 2140.17 2128.13 2128.13 2116.17 2116.17 2104.26 2104.26 2092.42 2092.42 2080.64 2080.64 2068.92 2068.92 2057.27 2057.27 2045.68 2045.68 2034.16 2034.16 2022.69 2022.69 2011.29 2011.29 1999.95 1999.95 1988.68 1988.68 1977.47 1977.47 1966.31 1966.31 1955.22 1955.22 1944.2 1944.2 1933.23 1933.23 1922.33 1922.33 1911.48 1911.48 1900.7 1900.7 1889.98 1889.98 1879.31 1879.31 1868.71 1868.71 1858.17 1858.17 1847.69 1847.69 1837.27 1837.27 1826.9 1826.9 1816.6 1816.6 1806.35 1806.35 1796.17 1796.17 1786.04 1786.04 1775.97 1775.97 1765.96 1765.96 1756 1756 1746.11 1746.11 1736.27 1736.27 1726.48 1726.48 1716.76 1716.76 1707.09 1707.09 1697.48 1697.48 1687.92 1687.92 1678.42 1678.42 1668.97 1668.97 1659.58 1659.58 1650.24 1650.24 1640.96 1640.96 1631.73 1631.73 1622.56 1622.56 1613.44 1613.44 1604.38 1604.38 1595.36 1595.36 1586.41 1586.41 1577.5 1577.5 1568.65 1568.65 1559.84 1559.84 1551.1 1551.1 1542.4 1542.4 1533.75 1533.75 1525.16 1525.16 1516.61 1516.61 1508.12 1508.12 1499.68 1499.68 1491.28 1491.28 1482.94 1482.94 1474.65 1474.65 1466.4 1466.4 1458.21 1458.21 1450.06 1450.06 1441.97 1441.97 1433.92 1433.92 1425.91 1425.91 1417.96 1417.96 1410.06 1410.06 1402.2 1402.2 1394.38 1394.38 1386.62 1386.62 1378.9 1378.9 1371.23 1371.23 1363.6 1363.6 1356.02 1356.02 1348.48 1348.48 1340.99 1340.99 1333.55 1333.55 1326.15 1326.15 1318.79 1318.79 1311.48 1311.48 1304.21 1304.21 1296.98 1296.98 1289.8 1289.8 1282.66 1282.66 1275.56 1275.56 1268.51 1268.51 1261.5 1261.5 1254.53 1254.53 1247.6 1247.6 1240.71 1240.71 1233.87 1233.87 1227.06 1227.06 1220.3 1220.3 1213.57 1213.57 1206.89 1206.89 1200.25 1200.25 1193.65 1193.65 1187.08 1187.08 1180.56 1180.56 1174.07 1174.07 1167.63 1167.63 1161.22 1161.22 1154.85 1154.85 1148.52 1148.52 1142.22 1142.22 1135.97 1135.97 1129.75 1129.75 1123.57 1123.57 1117.42 1117.42 1111.31 1111.31 1105.24 1105.24 1099.21 1099.21 1093.21 1093.21 1087.24 1087.24 1081.31 1081.31 1075.42 1075.42 1069.56 1069.56 1063.74 1063.74 1057.95 1057.95 1052.2 1052.2 1046.48 1046.48 1040.79 1040.79 1035.14 1035.14 1029.52 1029.52 1023.94 1023.94 1018.39 1018.39 1012.87 1012.87 1007.38 1007.38 1001.93 1001.93 996.505 996.505 991.115 991.115 985.758 985.758 980.432 980.432 975.137 975.137 969.874 969.874 964.642 964.642 959.44 959.44 954.269 954.269 949.129 949.129 944.019 944.019 938.939 938.939 933.889 933.889 928.869 928.869 923.878 923.878 918.916 918.916 913.984 913.984 909.08 909.08 904.205 904.205 899.359 899.359 894.54 894.54 889.75 889.75 884.989 884.989 880.254 880.254 875.548 875.548 870.869 870.869 866.217 866.217 861.592 861.592 856.994 856.994 852.423 852.423 847.879 847.879 843.36 843.36 838.868 838.868 834.402 834.402 829.962 829.962 825.548 825.548 821.159 821.159 816.795 816.795 812.457 812.457 808.143 808.143 803.855 803.855 799.591 799.591 795.352 795.352 791.137 791.137 786.946 786.946 782.779 782.779 778.637 778.637 774.518 774.518 770.422 770.422 766.35 766.35 762.302 762.302 758.276 758.276 754.273 754.273 750.293 750.293 746.336 746.336 742.402 742.402 738.489 738.489 734.599 734.599 730.731 730.731 726.885 726.885 723.061 723.061 719.259 719.259 715.477 715.477 711.718 711.718 707.979 707.979 704.262 704.262 700.565 700.565 696.89 696.89 693.235 693.235 689.6 689.6 685.986 685.986 682.393 682.393 678.819 678.819 675.265 675.265 671.732 671.732 668.218 668.218 664.723 664.723 661.249 661.249 657.793 657.793 654.357 654.357 650.94 650.94 647.541 647.541 644.162 644.162 640.801 640.801 637.459 637.459 634.136 634.136 630.831 630.831 627.544 627.544 624.275 624.275 621.024 621.024 617.792 617.792 614.577 614.577 611.379 611.379 608.199 608.199 605.037 605.037 601.892 601.892 598.764 598.764 595.653 595.653 592.56 592.56 589.483 589.483 586.423 586.423 583.379 583.379 580.352 580.352 577.342 577.342 574.348 574.348 571.37 571.37 568.408 568.408 565.462 565.462 562.533 562.533 559.619 559.619 556.72 556.72 553.838 553.838 550.971 550.971 548.119 548.119 545.282 545.282 542.461 542.461 539.655 539.655 536.864 536.864 534.088 534.088 531.327 531.327 528.581 528.581 525.849 525.849 523.132 523.132 520.429 520.429 517.74 517.74 515.066 515.066 512.406 512.406 509.76 509.76 507.129 507.129 504.511 504.511 501.906 501.906 499.316 499.316 496.739 496.739 494.176 494.176 491.626 491.626 489.089 489.089 486.566 486.566 484.056 484.056 481.559 481.559 479.075 479.075 476.604 476.604 474.145 474.145 471.7 471.7 469.267 469.267 466.846 466.846 464.438 464.438 462.042 462.042 459.659 459.659 457.288 457.288 454.929 454.929 452.581 452.581 450.246 450.246 447.923 447.923 445.612 445.612 443.312 443.312 441.024 441.024 438.747 438.747 436.482 436.482 434.229 434.229 431.986 431.986 429.756 429.756 427.536 427.536 425.327 425.327 423.129 423.129 420.942 420.942 418.766 418.766 416.601 416.601 414.446 414.446 412.301 412.301 410.167 410.167 408.042 408.042 405.927 405.927 403.822 403.822 401.726 401.726 399.639 399.639 397.562 397.562 395.492 395.492 393.432 393.432 391.379 391.379 389.335 389.335 387.299 387.299 385.271 385.271 383.25 383.25 381.238 381.238 379.233 379.233 377.237 377.237 375.249 375.249 373.27 373.27 371.3 371.3 369.339 369.339 367.389 367.389 365.45 365.45 363.522 363.522 361.606 361.606 359.703 359.703 357.813 357.813 355.937 355.937 354.076 354.076 352.23 352.23 350.4 350.4 348.585 348.585 346.787 346.787 345.006 345.006 343.241 343.241 341.494 341.494 339.764 339.764 338.051 338.051 336.354 336.354 334.675 334.675 333.013 333.013 331.368 331.368 329.739 329.739 328.127 328.127 326.53 326.53 324.948 324.948 323.381 323.381 321.828 321.828 320.289 320.289 318.761 318.761 317.245 317.245 315.738 315.738 314.24 314.24 312.75 312.75 311.265 311.265 309.784 309.784 308.306 308.306 306.829 306.829 305.352 305.352 303.872 303.872 302.389 302.389 300.901 300.901 299.407 299.407 297.906 297.906 296.397 296.397 294.879 294.879 293.352 293.352 291.816 291.816 290.271 290.271 288.716 288.716 287.153 287.153 285.583 285.583 284.005 284.005 282.422 282.422 280.834 280.834 279.243 279.243 277.65 277.65 276.057 276.057 274.466 274.466 272.877 272.877 271.293 271.293 269.716 269.716 268.145 268.145 266.584 266.584 265.033 265.033 263.492 263.492 261.963 261.963 260.447 260.447 258.944 258.944 257.455 257.455 255.979 255.979 254.517 254.517 253.069 253.069 251.635 251.635 250.214 250.214 248.807 248.807 247.412 247.412 246.029 246.029 244.659 244.659 243.299 243.299 241.951 241.951 240.613 240.613 239.284 239.284 237.965 237.965 236.655 236.655 235.354 235.354 234.06 234.06 232.774 232.774 231.496 231.496 230.225 230.225 228.96 228.96 227.703 227.703 226.451 226.451 225.206 225.206 223.967 223.967 222.734 222.734 221.507 221.507 220.286 220.286 219.07 219.07 217.86 217.86 216.655 216.655 215.456 215.456 214.262 214.262 213.074 213.074 211.89 211.89 210.713 210.713 209.54 209.54 208.373 208.373 207.211 207.211 206.054 206.054 204.902 204.902 203.755 203.755 202.613 202.613 201.477 201.477 200.345 200.345 199.218 199.218 198.097 198.097 196.98 196.98 195.868 195.868 194.761 194.761 193.659 193.659 192.561 192.561 191.469 191.469 190.381 190.381 189.298 189.298 188.219 188.219 187.145 187.145 186.076 186.076 185.012 185.012 183.952 183.952 182.897 182.897 181.846 181.846 180.8 180.8 179.758 179.758 178.721 178.721 177.688 177.688 176.66 176.66 175.636 175.636 174.617 174.617 173.601 173.601 172.591 172.591 171.584 171.584 170.582 170.582 169.584 169.584 168.59 168.59 167.601 167.601 166.616 166.616 165.634 165.634 164.657 164.657 163.685 163.685 162.716 162.716 161.751 161.751 160.791 160.791 159.834 159.834 158.882 158.882 157.933 157.933 156.989 156.989 156.048 156.048 155.112 155.112 154.179 154.179 153.25 153.25 152.325 152.325 151.404 151.404 150.487 150.487 149.574 149.574 148.664 148.664 147.758 147.758 146.856 146.856 145.958 145.958 145.063 145.063 144.172 144.172 143.285 143.285 142.401 142.401 141.521 141.521 140.645 140.645 139.772 139.772 138.903 138.903 138.038 138.038 137.176 137.176 136.317 136.317 135.462 135.462 134.611 134.611 133.763 133.763 132.918 132.918 132.077 132.077 131.239 131.239 130.405 130.405 129.574 129.574 128.746 128.746 127.922 127.922 127.101 127.101 126.284 126.284 125.47 125.47 124.659 124.659 123.851 123.851 123.047 123.047 122.245 122.245 121.447 121.447 120.653 120.653 119.861 119.861 119.073 119.073 118.287 118.287 117.505 117.505 116.726 116.726 115.951 115.951 115.178 115.178 114.408 114.408 113.641 113.641 112.878 112.878 112.117 112.117 111.36 111.36 110.605 110.605 109.854 109.854 109.105 109.105 108.36 108.36 107.617 107.617 106.877 106.877 106.14 106.14 105.406 105.406 104.675 104.675 103.947 103.947 103.222 103.222 102.5 102.5 101.78 101.78 101.063 101.063 100.349 100.349 99.6379 99.6379 98.9295 98.9295 98.2238 98.2238 97.5209 97.5209 96.8207 96.8207 96.1232 96.1232 95.4285 95.4285 94.7364 94.7364 94.0471 94.0471 93.3604 93.3604 92.6763 92.6763 91.9949 91.9949 91.3162 91.3162 90.6401 90.6401 89.9665 89.9665 89.2956 89.2956 88.6273 88.6273 87.9615 87.9615 87.2983 87.2983 86.6376 86.6376 85.9794 85.9794 85.3238 85.3238 84.6707 84.6707 84.0201 84.0201 83.372 83.372 82.7264 82.7264 82.0832 82.0832 81.4425 81.4425 80.8042 80.8042 80.1683 80.1683 79.5349 79.5349 78.9039 78.9039 78.2752 78.2752 77.649 77.649 77.0251 77.0251 76.4036 76.4036 75.7845 75.7845 75.1676 75.1676 74.5531 74.5531 73.941 73.941 73.3311 73.3311 72.7235 72.7235 72.1183 72.1183 71.5153 71.5153 70.9145 70.9145 70.316 70.316 69.7198 69.7198 69.1258 69.1258 68.534 68.534 67.9445 67.9445 67.3571 67.3571 66.7719 66.7719 66.1889 66.1889 65.6081 65.6081 65.0295 65.0295 64.453 64.453 63.8787 63.8787 63.3065 63.3065 62.7364 62.7364 62.1684 62.1684 61.6025 61.6025 61.0388 61.0388 60.4771 60.4771 59.9175 59.9175 59.36 59.36 58.8045 58.8045 58.2511 58.2511 57.6997 57.6997 57.1503 57.1503 56.603 56.603 56.0577 56.0577 55.5144 55.5144 54.973 54.973 54.4337 54.4337 53.8964 53.8964 53.361 53.361 52.8275 52.8275 52.2961 52.2961 51.7665 51.7665 51.2389 51.2389 50.7133 50.7133 50.1895 50.1895 49.6677 49.6677 49.1477 49.1477 48.6297 48.6297 48.1135 48.1135 47.5992 47.5992 47.0868 47.0868 46.5762 46.5762 46.0675 46.0675 45.5606 45.5606 45.0555 45.0555 44.5523 44.5523 44.0509 44.0509 43.5513 43.5513 43.0535 43.0535 42.5575 42.5575 42.0633 42.0633 41.5709 41.5709 41.0803 41.0803 40.5914 40.5914 40.1042 40.1042 39.6188 39.6188 39.1352 39.1352 38.6533 38.6533 38.1731 38.1731 37.6946 37.6946 37.2179 37.2179 36.7428 36.7428 36.2694 36.2694 35.7978 35.7978 35.3278 35.3278 34.8595 34.8595 34.3928 34.3928 33.9278 33.9278 33.4645 33.4645 33.0028 33.0028 32.5428 32.5428 32.0844 32.0844 31.6276 31.6276 31.1724 31.1724 30.7189 30.7189 30.2669 30.2669 29.8165 29.8165 29.3678 29.3678 28.9206 28.9206 28.475 28.475 28.031 28.031 27.5885 27.5885 27.1476 27.1476 26.7082 26.7082 26.2704 26.2704 25.8342 25.8342 25.3994 25.3994 24.9662 24.9662 24.5345 24.5345 24.1043 24.1043 23.6756 23.6756 23.2485 23.2485 22.8228 22.8228 22.3986 22.3986 21.9759 21.9759 21.5546 21.5546 21.1349 21.1349 20.7165 20.7165 20.2997 20.2997 19.8843 19.8843 19.4703 19.4703 19.0578 19.0578 18.6467 18.6467 18.2371 18.2371 17.8289 17.8289 17.422 17.422 17.0166 17.0166 16.6126 16.6126 16.21 16.21 15.8088 15.8088 15.409 15.409 15.0105 15.0105 14.6135 14.6135 14.2178 14.2178 13.8234 13.8234 13.4305 13.4305 13.0388 13.0388 12.6486 12.6486 12.2596 12.2596 11.872 11.872 11.4858 11.4858 11.1008 11.1008 10.7172 10.7172 10.3349 10.3349 9.95389 9.95389 9.5742 9.5742 9.1958 9.1958 8.81871 8.81871 8.4429 8.4429 8.06837 8.06837 7.69512 7.69512 7.32315 7.32315 6.95245 6.95245 6.583 6.583 6.21482 6.21482 5.84789 5.84789 5.4822 5.4822 5.11776 5.11776 4.75456 4.75456 4.39259 4.39259 4.03185 4.03185 3.67233 3.67233 3.31403 3.31403 2.95695 2.95695 2.60107 2.60107 2.2464 2.2464 1.89293 1.89293 1.54065 1.54065 1.18956 1.18956 0.839656 0.839656 0.490932 0.490932 0.143385 0.143385 -0.202992 -0.202992 -0.548201 -0.548201 -0.892249 -0.892249 -1.23514 -1.23514 -1.57688 -1.57688 -1.91747 -1.91747 -2.25691 -2.25691 -2.59522 -2.59522 -2.93239 -2.93239 -3.26843 -3.26843 -3.60335 -3.60335 -3.93714 -3.93714 -4.26981 -4.26981 -4.60138 -4.60138 -4.93183 -4.93183 -5.26118 -5.26118 -5.58943 -5.58943 -5.91659 -5.91659 -6.24265 -6.24265 -6.56763 -6.56763 -6.89152 -6.89152 -7.21433 -7.21433 -7.53607 -7.53607 -7.85674 -7.85674 -8.17634 -8.17634 -8.49488 -8.49488 -8.81237 -8.81237 -9.12879 -9.12879 -9.44417 -9.44417 -9.7585 -9.7585 -10.0718 -10.0718 -10.384 -10.384 -10.6953 -10.6953 -11.0054 -11.0054 -11.3146 -11.3146 -11.6227 -11.6227 -11.9299 -11.9299 -12.236 -12.236 -12.5411 -12.5411 -12.8452 -12.8452 -13.1482 -13.1482 -13.4503 -13.4503 -13.7514 -13.7514 -14.0515 -14.0515 -14.3506 -14.3506 -14.6488 -14.6488 -14.9459 -14.9459 -15.2421 -15.2421 -15.5373 -15.5373 -15.8315 -15.8315 -16.1248 -16.1248 -16.4171 -16.4171 -16.7084 -16.7084 -16.9988 -16.9988 -17.2882 -17.2882 -17.5767 -17.5767 -17.8643 -17.8643 -18.1509 -18.1509 -18.4366 -18.4366 -18.7213 -18.7213 -19.0051 -19.0051 -19.288 -19.288 -19.5699 -19.5699 -19.851 -19.851 -20.1311 -20.1311 -20.4103 -20.4103 -20.6886 -20.6886 -20.966 -20.966 -21.2425 -21.2425 -21.5181 -21.5181 -21.7928 -21.7928 -22.0666 -22.0666 -22.3395 -22.3395 -22.6115 -22.6115 -22.8827 -22.8827 -23.1529 -23.1529 -23.4223 -23.4223 -23.6908 -23.6908 -23.9585 -23.9585 -24.2253 -24.2253 -24.4912 -24.4912 -24.7562 -24.7562 -25.0204 -25.0204 -25.2838 -25.2838 -25.5463 -25.5463 -25.8079 -25.8079 -26.0687 -26.0687 -26.3287 -26.3287 -26.5878 -26.5878 -26.8461 -26.8461 -27.1036 -27.1036 -27.3602 -27.3602 -27.616 -27.616 -27.871 -27.871 -28.1251 -28.1251 -28.3785 -28.3785 -28.631 -28.631 -28.8827 -28.8827 -29.1336 -29.1336 -29.3837 -29.3837 -29.633 -29.633 -29.8815 -29.8815 -30.1292 -30.1292 -30.3761 -30.3761 -30.6222 -30.6222 -30.8676 -30.8676 -31.1121 -31.1121 -31.3559 -31.3559 -31.5989 -31.5989 -31.8411 -31.8411 -32.0825 -32.0825 -32.3232 -32.3232 -32.5631 -32.5631 -32.8022 -32.8022 -33.0406 -33.0406 -33.2782 -33.2782 -33.515 -33.515 -33.7511 -33.7511 -33.9864 -33.9864 -34.221 -34.221 -34.4549 -34.4549 -34.688 -34.688 -34.9203 -34.9203 -35.152 -35.152 -35.3828 -35.3828 -35.613 -35.613 -35.8424 -35.8424 -36.0711 -36.0711 -36.2991 -36.2991 -36.5263 -36.5263 -36.7528 -36.7528 -36.9786 -36.9786 -37.2037 -37.2037 -37.4281 -37.4281 -37.6518 -37.6518 -37.8747 -37.8747 -38.097 -38.097 -38.3185 -38.3185 -38.5394 -38.5394 -38.7595 -38.7595 -38.979 -38.979 -39.1978 -39.1978 -39.4158 -39.4158 -39.6332 -39.6332 -39.8499 -39.8499 -40.0659 -40.0659 -40.2813 -40.2813 -40.4959 -40.4959 -40.7099 -40.7099 -40.9232 -40.9232 -41.1358 -41.1358 -41.3478 -41.3478 -41.5591 -41.5591 -41.7697 -41.7697 -41.9797 -41.9797 -42.189 -42.189 -42.3977 -42.3977 -42.6057 -42.6057 -42.813 -42.813 -43.0197 -43.0197 -43.2257 -43.2257 -43.4311 -43.4311 -43.6359 -43.6359 -43.84 -43.84 -44.0435 -44.0435 -44.2463 -44.2463 -44.4485 -44.4485 -44.6501 -44.6501 -44.851 -44.851 -45.0513 -45.0513 -45.251 -45.251 -45.4501 -45.4501 -45.6485 -45.6485 -45.8463 -45.8463 -46.0435 -46.0435 -46.2401 -46.2401 -46.4361 -46.4361 -46.6314 -46.6314 -46.8262 -46.8262 -47.0203 -47.0203 -47.2138 -47.2138 -47.4068 -47.4068 -47.5991 -47.5991 -47.7908 -47.7908 -47.9819 -47.9819 -48.1725 -48.1725 -48.3624 -48.3624 -48.5518 -48.5518 -48.7405 -48.7405 -48.9287 -48.9287 -49.1163 -49.1163 -49.3033 -49.3033 -49.4897 -49.4897 -49.6756 -49.6756 -49.8609 -49.8609 -50.0455 -50.0455 -50.2297 -50.2297 -50.4132 -50.4132 -50.5962 -50.5962 -50.7786 -50.7786 -50.9605 -50.9605 -51.1417 -51.1417 -51.3225 -51.3225 -51.5026 -51.5026 -51.6822 -51.6822 -51.8613 -51.8613 -52.0398 -52.0398 -52.2177 -52.2177 -52.3951 -52.3951 -52.5719 -52.5719 -52.7482 -52.7482 -52.924 -52.924 -53.0992 -53.0992 -53.2738 -53.2738 -53.448 -53.448 -53.6215 -53.6215 -53.7946 -53.7946 -53.9671 -53.9671 -54.1391 -54.1391 -54.3105 -54.3105 -54.4815 -54.4815 -54.6519 -54.6519 -54.8217 -54.8217 -54.9911 -54.9911 -55.1599 -55.1599 -55.3282 -55.3282 -55.496 -55.496 -55.6633 -55.6633 -55.83 -55.83 -55.9963 -55.9963 -56.162 -56.162 -56.3272 -56.3272 -56.4919 -56.4919 -56.6561 -56.6561 -56.8198 -56.8198 -56.983 -56.983 -57.1457 -57.1457 -57.3079 -57.3079 -57.4696 -57.4696 -57.6308 -57.6308 -57.7915 -57.7915 -57.9517 -57.9517 -58.1114 -58.1114 -58.2706 -58.2706 -58.4294 -58.4294 -58.5876 -58.5876 -58.7454 -58.7454 -58.9027 -58.9027 -59.0595 -59.0595 -59.2158 -59.2158 -59.3716 -59.3716 -59.527 -59.527 -59.6819 -59.6819 -59.8363 -59.8363 -59.9902 -59.9902 -60.1437 -60.1437 -60.2967 -60.2967 -60.4492 -60.4492 -60.6012 -60.6012 -60.7528 -60.7528 -60.904 -60.904 -61.0546 -61.0546 -61.2048 -61.2048 -61.3546 -61.3546 -61.5039 -61.5039 -61.6527 -61.6527 -61.8011 -61.8011 -61.949 -61.949 -62.0965 -62.0965 -62.2435 -62.2435 -62.3901 -62.3901 -62.5362 -62.5362 -62.6819 -62.6819 -62.8271 -62.8271 -62.9719 -62.9719 -63.1163 -63.1163 -63.2602 -63.2602 -63.4036 -63.4036 -63.5467 -63.5467 -63.6893 -63.6893 -63.8314 -63.8314 -63.9732 -63.9732 -64.1144 -64.1144 -64.2553 -64.2553 -64.3957 -64.3957 -64.5357 -64.5357 -64.6753 -64.6753 -64.8145 -64.8145 -64.9532 -64.9532 -65.0915 -65.0915 -65.2294 -65.2294 -65.3669 -65.3669 -65.5039 -65.5039 -65.6405 -65.6405 -65.7768 -65.7768 -65.9126 -65.9126 -66.0479 -66.0479 -66.1829 -66.1829 -66.3175 -66.3175 -66.4516 -66.4516 -66.5854 -66.5854 -66.7187 -66.7187 -66.8516 -66.8516 -66.9842 -66.9842 -67.1163 -67.1163 -67.248 -67.248 -67.3793 -67.3793 -67.5103 -67.5103 -67.6408 -67.6408 -67.770