# vtk DataFile Version 3.0
#This file was generated by the deal.II library on 2020/9/6 at 2:48:28
ASCII
DATASET UNSTRUCTURED_GRID

POINTS 4096 double
1.5 0 0
1.59692 0 0
1.59692 0 0
1.69385 0 0
1.69385 0 0
1.79077 0 0
1.79077 0 0
1.8877 0 0
1.8877 0 0
1.98462 0 0
1.98462 0 0
2.08154 0 0
2.08154 0 0
2.17847 0 0
2.17847 0 0
2.27539 0 0
2.27539 0 0
2.37231 0 0
2.37231 0 0
2.46924 0 0
2.46924 0 0
2.56616 0 0
2.56616 0 0
2.66309 0 0
2.66309 0 0
2.76001 0 0
2.76001 0 0
2.85693 0 0
2.85693 0 0
2.95386 0 0
2.95386 0 0
3.05078 0 0
3.05078 0 0
3.14771 0 0
3.14771 0 0
3.24463 0 0
3.24463 0 0
3.34155 0 0
3.34155 0 0
3.43848 0 0
3.43848 0 0
3.5354 0 0
3.5354 0 0
3.63232 0 0
3.63232 0 0
3.72925 0 0
3.72925 0 0
3.82617 0 0
3.82617 0 0
3.9231 0 0
3.9231 0 0
4.02002 0 0
4.02002 0 0
4.11694 0 0
4.11694 0 0
4.21387 0 0
4.21387 0 0
4.31079 0 0
4.31079 0 0
4.40771 0 0
4.40771 0 0
4.50464 0 0
4.50464 0 0
4.60156 0 0
4.60156 0 0
4.69849 0 0
4.69849 0 0
4.79541 0 0
4.79541 0 0
4.89233 0 0
4.89233 0 0
4.98926 0 0
4.98926 0 0
5.08618 0 0
5.08618 0 0
5.18311 0 0
5.18311 0 0
5.28003 0 0
5.28003 0 0
5.37695 0 0
5.37695 0 0
5.47388 0 0
5.47388 0 0
5.5708 0 0
5.5708 0 0
5.66772 0 0
5.66772 0 0
5.76465 0 0
5.76465 0 0
5.86157 0 0
5.86157 0 0
5.9585 0 0
5.9585 0 0
6.05542 0 0
6.05542 0 0
6.15234 0 0
6.15234 0 0
6.24927 0 0
6.24927 0 0
6.34619 0 0
6.34619 0 0
6.44312 0 0
6.44312 0 0
6.54004 0 0
6.54004 0 0
6.63696 0 0
6.63696 0 0
6.73389 0 0
6.73389 0 0
6.83081 0 0
6.83081 0 0
6.92773 0 0
6.92773 0 0
7.02466 0 0
7.02466 0 0
7.12158 0 0
7.12158 0 0
7.21851 0 0
7.21851 0 0
7.31543 0 0
7.31543 0 0
7.41235 0 0
7.41235 0 0
7.50928 0 0
7.50928 0 0
7.6062 0 0
7.6062 0 0
7.70312 0 0
7.70312 0 0
7.80005 0 0
7.80005 0 0
7.89697 0 0
7.89697 0 0
7.9939 0 0
7.9939 0 0
8.09082 0 0
8.09082 0 0
8.18774 0 0
8.18774 0 0
8.28467 0 0
8.28467 0 0
8.38159 0 0
8.38159 0 0
8.47852 0 0
8.47852 0 0
8.57544 0 0
8.57544 0 0
8.67236 0 0
8.67236 0 0
8.76929 0 0
8.76929 0 0
8.86621 0 0
8.86621 0 0
8.96313 0 0
8.96313 0 0
9.06006 0 0
9.06006 0 0
9.15698 0 0
9.15698 0 0
9.25391 0 0
9.25391 0 0
9.35083 0 0
9.35083 0 0
9.44775 0 0
9.44775 0 0
9.54468 0 0
9.54468 0 0
9.6416 0 0
9.6416 0 0
9.73853 0 0
9.73853 0 0
9.83545 0 0
9.83545 0 0
9.93237 0 0
9.93237 0 0
10.0293 0 0
10.0293 0 0
10.1262 0 0
10.1262 0 0
10.2231 0 0
10.2231 0 0
10.3201 0 0
10.3201 0 0
10.417 0 0
10.417 0 0
10.5139 0 0
10.5139 0 0
10.6108 0 0
10.6108 0 0
10.7078 0 0
10.7078 0 0
10.8047 0 0
10.8047 0 0
10.9016 0 0
10.9016 0 0
10.9985 0 0
10.9985 0 0
11.0955 0 0
11.0955 0 0
11.1924 0 0
11.1924 0 0
11.2893 0 0
11.2893 0 0
11.3862 0 0
11.3862 0 0
11.4832 0 0
11.4832 0 0
11.5801 0 0
11.5801 0 0
11.677 0 0
11.677 0 0
11.7739 0 0
11.7739 0 0
11.8708 0 0
11.8708 0 0
11.9678 0 0
11.9678 0 0
12.0647 0 0
12.0647 0 0
12.1616 0 0
12.1616 0 0
12.2585 0 0
12.2585 0 0
12.3555 0 0
12.3555 0 0
12.4524 0 0
12.4524 0 0
12.5493 0 0
12.5493 0 0
12.6462 0 0
12.6462 0 0
12.7432 0 0
12.7432 0 0
12.8401 0 0
12.8401 0 0
12.937 0 0
12.937 0 0
13.0339 0 0
13.0339 0 0
13.1309 0 0
13.1309 0 0
13.2278 0 0
13.2278 0 0
13.3247 0 0
13.3247 0 0
13.4216 0 0
13.4216 0 0
13.5186 0 0
13.5186 0 0
13.6155 0 0
13.6155 0 0
13.7124 0 0
13.7124 0 0
13.8093 0 0
13.8093 0 0
13.9062 0 0
13.9062 0 0
14.0032 0 0
14.0032 0 0
14.1001 0 0
14.1001 0 0
14.197 0 0
14.197 0 0
14.2939 0 0
14.2939 0 0
14.3909 0 0
14.3909 0 0
14.4878 0 0
14.4878 0 0
14.5847 0 0
14.5847 0 0
14.6816 0 0
14.6816 0 0
14.7786 0 0
14.7786 0 0
14.8755 0 0
14.8755 0 0
14.9724 0 0
14.9724 0 0
15.0693 0 0
15.0693 0 0
15.1663 0 0
15.1663 0 0
15.2632 0 0
15.2632 0 0
15.3601 0 0
15.3601 0 0
15.457 0 0
15.457 0 0
15.554 0 0
15.554 0 0
15.6509 0 0
15.6509 0 0
15.7478 0 0
15.7478 0 0
15.8447 0 0
15.8447 0 0
15.9417 0 0
15.9417 0 0
16.0386 0 0
16.0386 0 0
16.1355 0 0
16.1355 0 0
16.2324 0 0
16.2324 0 0
16.3293 0 0
16.3293 0 0
16.4263 0 0
16.4263 0 0
16.5232 0 0
16.5232 0 0
16.6201 0 0
16.6201 0 0
16.717 0 0
16.717 0 0
16.814 0 0
16.814 0 0
16.9109 0 0
16.9109 0 0
17.0078 0 0
17.0078 0 0
17.1047 0 0
17.1047 0 0
17.2017 0 0
17.2017 0 0
17.2986 0 0
17.2986 0 0
17.3955 0 0
17.3955 0 0
17.4924 0 0
17.4924 0 0
17.5894 0 0
17.5894 0 0
17.6863 0 0
17.6863 0 0
17.7832 0 0
17.7832 0 0
17.8801 0 0
17.8801 0 0
17.9771 0 0
17.9771 0 0
18.074 0 0
18.074 0 0
18.1709 0 0
18.1709 0 0
18.2678 0 0
18.2678 0 0
18.3647 0 0
18.3647 0 0
18.4617 0 0
18.4617 0 0
18.5586 0 0
18.5586 0 0
18.6555 0 0
18.6555 0 0
18.7524 0 0
18.7524 0 0
18.8494 0 0
18.8494 0 0
18.9463 0 0
18.9463 0 0
19.0432 0 0
19.0432 0 0
19.1401 0 0
19.1401 0 0
19.2371 0 0
19.2371 0 0
19.334 0 0
19.334 0 0
19.4309 0 0
19.4309 0 0
19.5278 0 0
19.5278 0 0
19.6248 0 0
19.6248 0 0
19.7217 0 0
19.7217 0 0
19.8186 0 0
19.8186 0 0
19.9155 0 0
19.9155 0 0
20.0125 0 0
20.0125 0 0
20.1094 0 0
20.1094 0 0
20.2063 0 0
20.2063 0 0
20.3032 0 0
20.3032 0 0
20.4001 0 0
20.4001 0 0
20.4971 0 0
20.4971 0 0
20.594 0 0
20.594 0 0
20.6909 0 0
20.6909 0 0
20.7878 0 0
20.7878 0 0
20.8848 0 0
20.8848 0 0
20.9817 0 0
20.9817 0 0
21.0786 0 0
21.0786 0 0
21.1755 0 0
21.1755 0 0
21.2725 0 0
21.2725 0 0
21.3694 0 0
21.3694 0 0
21.4663 0 0
21.4663 0 0
21.5632 0 0
21.5632 0 0
21.6602 0 0
21.6602 0 0
21.7571 0 0
21.7571 0 0
21.854 0 0
21.854 0 0
21.9509 0 0
21.9509 0 0
22.0479 0 0
22.0479 0 0
22.1448 0 0
22.1448 0 0
22.2417 0 0
22.2417 0 0
22.3386 0 0
22.3386 0 0
22.4355 0 0
22.4355 0 0
22.5325 0 0
22.5325 0 0
22.6294 0 0
22.6294 0 0
22.7263 0 0
22.7263 0 0
22.8232 0 0
22.8232 0 0
22.9202 0 0
22.9202 0 0
23.0171 0 0
23.0171 0 0
23.114 0 0
23.114 0 0
23.2109 0 0
23.2109 0 0
23.3079 0 0
23.3079 0 0
23.4048 0 0
23.4048 0 0
23.5017 0 0
23.5017 0 0
23.5986 0 0
23.5986 0 0
23.6956 0 0
23.6956 0 0
23.7925 0 0
23.7925 0 0
23.8894 0 0
23.8894 0 0
23.9863 0 0
23.9863 0 0
24.0833 0 0
24.0833 0 0
24.1802 0 0
24.1802 0 0
24.2771 0 0
24.2771 0 0
24.374 0 0
24.374 0 0
24.4709 0 0
24.4709 0 0
24.5679 0 0
24.5679 0 0
24.6648 0 0
24.6648 0 0
24.7617 0 0
24.7617 0 0
24.8586 0 0
24.8586 0 0
24.9556 0 0
24.9556 0 0
25.0525 0 0
25.0525 0 0
25.1494 0 0
25.1494 0 0
25.2463 0 0
25.2463 0 0
25.3433 0 0
25.3433 0 0
25.4402 0 0
25.4402 0 0
25.5371 0 0
25.5371 0 0
25.634 0 0
25.634 0 0
25.731 0 0
25.731 0 0
25.8279 0 0
25.8279 0 0
25.9248 0 0
25.9248 0 0
26.0217 0 0
26.0217 0 0
26.1187 0 0
26.1187 0 0
26.2156 0 0
26.2156 0 0
26.3125 0 0
26.3125 0 0
26.4094 0 0
26.4094 0 0
26.5063 0 0
26.5063 0 0
26.6033 0 0
26.6033 0 0
26.7002 0 0
26.7002 0 0
26.7971 0 0
26.7971 0 0
26.894 0 0
26.894 0 0
26.991 0 0
26.991 0 0
27.0879 0 0
27.0879 0 0
27.1848 0 0
27.1848 0 0
27.2817 0 0
27.2817 0 0
27.3787 0 0
27.3787 0 0
27.4756 0 0
27.4756 0 0
27.5725 0 0
27.5725 0 0
27.6694 0 0
27.6694 0 0
27.7664 0 0
27.7664 0 0
27.8633 0 0
27.8633 0 0
27.9602 0 0
27.9602 0 0
28.0571 0 0
28.0571 0 0
28.1541 0 0
28.1541 0 0
28.251 0 0
28.251 0 0
28.3479 0 0
28.3479 0 0
28.4448 0 0
28.4448 0 0
28.5417 0 0
28.5417 0 0
28.6387 0 0
28.6387 0 0
28.7356 0 0
28.7356 0 0
28.8325 0 0
28.8325 0 0
28.9294 0 0
28.9294 0 0
29.0264 0 0
29.0264 0 0
29.1233 0 0
29.1233 0 0
29.2202 0 0
29.2202 0 0
29.3171 0 0
29.3171 0 0
29.4141 0 0
29.4141 0 0
29.511 0 0
29.511 0 0
29.6079 0 0
29.6079 0 0
29.7048 0 0
29.7048 0 0
29.8018 0 0
29.8018 0 0
29.8987 0 0
29.8987 0 0
29.9956 0 0
29.9956 0 0
30.0925 0 0
30.0925 0 0
30.1895 0 0
30.1895 0 0
30.2864 0 0
30.2864 0 0
30.3833 0 0
30.3833 0 0
30.4802 0 0
30.4802 0 0
30.5771 0 0
30.5771 0 0
30.6741 0 0
30.6741 0 0
30.771 0 0
30.771 0 0
30.8679 0 0
30.8679 0 0
30.9648 0 0
30.9648 0 0
31.0618 0 0
31.0618 0 0
31.1587 0 0
31.1587 0 0
31.2556 0 0
31.2556 0 0
31.3525 0 0
31.3525 0 0
31.4495 0 0
31.4495 0 0
31.5464 0 0
31.5464 0 0
31.6433 0 0
31.6433 0 0
31.7402 0 0
31.7402 0 0
31.8372 0 0
31.8372 0 0
31.9341 0 0
31.9341 0 0
32.031 0 0
32.031 0 0
32.1279 0 0
32.1279 0 0
32.2249 0 0
32.2249 0 0
32.3218 0 0
32.3218 0 0
32.4187 0 0
32.4187 0 0
32.5156 0 0
32.5156 0 0
32.6125 0 0
32.6125 0 0
32.7095 0 0
32.7095 0 0
32.8064 0 0
32.8064 0 0
32.9033 0 0
32.9033 0 0
33.0002 0 0
33.0002 0 0
33.0972 0 0
33.0972 0 0
33.1941 0 0
33.1941 0 0
33.291 0 0
33.291 0 0
33.3879 0 0
33.3879 0 0
33.4849 0 0
33.4849 0 0
33.5818 0 0
33.5818 0 0
33.6787 0 0
33.6787 0 0
33.7756 0 0
33.7756 0 0
33.8726 0 0
33.8726 0 0
33.9695 0 0
33.9695 0 0
34.0664 0 0
34.0664 0 0
34.1633 0 0
34.1633 0 0
34.2603 0 0
34.2603 0 0
34.3572 0 0
34.3572 0 0
34.4541 0 0
34.4541 0 0
34.551 0 0
34.551 0 0
34.6479 0 0
34.6479 0 0
34.7449 0 0
34.7449 0 0
34.8418 0 0
34.8418 0 0
34.9387 0 0
34.9387 0 0
35.0356 0 0
35.0356 0 0
35.1326 0 0
35.1326 0 0
35.2295 0 0
35.2295 0 0
35.3264 0 0
35.3264 0 0
35.4233 0 0
35.4233 0 0
35.5203 0 0
35.5203 0 0
35.6172 0 0
35.6172 0 0
35.7141 0 0
35.7141 0 0
35.811 0 0
35.811 0 0
35.908 0 0
35.908 0 0
36.0049 0 0
36.0049 0 0
36.1018 0 0
36.1018 0 0
36.1987 0 0
36.1987 0 0
36.2957 0 0
36.2957 0 0
36.3926 0 0
36.3926 0 0
36.4895 0 0
36.4895 0 0
36.5864 0 0
36.5864 0 0
36.6833 0 0
36.6833 0 0
36.7803 0 0
36.7803 0 0
36.8772 0 0
36.8772 0 0
36.9741 0 0
36.9741 0 0
37.071 0 0
37.071 0 0
37.168 0 0
37.168 0 0
37.2649 0 0
37.2649 0 0
37.3618 0 0
37.3618 0 0
37.4587 0 0
37.4587 0 0
37.5557 0 0
37.5557 0 0
37.6526 0 0
37.6526 0 0
37.7495 0 0
37.7495 0 0
37.8464 0 0
37.8464 0 0
37.9434 0 0
37.9434 0 0
38.0403 0 0
38.0403 0 0
38.1372 0 0
38.1372 0 0
38.2341 0 0
38.2341 0 0
38.3311 0 0
38.3311 0 0
38.428 0 0
38.428 0 0
38.5249 0 0
38.5249 0 0
38.6218 0 0
38.6218 0 0
38.7188 0 0
38.7188 0 0
38.8157 0 0
38.8157 0 0
38.9126 0 0
38.9126 0 0
39.0095 0 0
39.0095 0 0
39.1064 0 0
39.1064 0 0
39.2034 0 0
39.2034 0 0
39.3003 0 0
39.3003 0 0
39.3972 0 0
39.3972 0 0
39.4941 0 0
39.4941 0 0
39.5911 0 0
39.5911 0 0
39.688 0 0
39.688 0 0
39.7849 0 0
39.7849 0 0
39.8818 0 0
39.8818 0 0
39.9788 0 0
39.9788 0 0
40.0757 0 0
40.0757 0 0
40.1726 0 0
40.1726 0 0
40.2695 0 0
40.2695 0 0
40.3665 0 0
40.3665 0 0
40.4634 0 0
40.4634 0 0
40.5603 0 0
40.5603 0 0
40.6572 0 0
40.6572 0 0
40.7542 0 0
40.7542 0 0
40.8511 0 0
40.8511 0 0
40.948 0 0
40.948 0 0
41.0449 0 0
41.0449 0 0
41.1418 0 0
41.1418 0 0
41.2388 0 0
41.2388 0 0
41.3357 0 0
41.3357 0 0
41.4326 0 0
41.4326 0 0
41.5295 0 0
41.5295 0 0
[...]
POINT_DATA 4096
SCALARS solution_0 double 1
LOOKUP_TABLE default
49.5465 48.5081 48.5081 47.6286 47.6286 46.8762 46.8762 46.2262 46.2262 45.6597 45.6597 45.1614 45.1614 44.7196 44.7196 44.3246 44.3246 43.9686 43.9686 43.6454 43.6454 43.3496 43.3496 43.0771 43.0771 42.8241 42.8241 42.5878 42.5878 42.3655 42.3655 42.1551 42.1551 41.9549 41.9549 41.7633 41.7633 41.579 41.579 41.4009 41.4009 41.2279 41.2279 41.0594 41.0594 40.8945 40.8945 40.7327 40.7327 40.5735 40.5735 40.4163 40.4163 40.2608 40.2608 40.1067 40.1067 39.9536 39.9536 39.8013 39.8013 39.6495 39.6495 39.4982 39.4982 39.3471 39.3471 39.1962 39.1962 39.0452 39.0452 38.894 38.894 38.7427 38.7427 38.5911 38.5911 38.4392 38.4392 38.2869 38.2869 38.1342 38.1342 37.981 37.981 37.8274 37.8274 37.6733 37.6733 37.5187 37.5187 37.3636 37.3636 37.208 37.208 37.0519 37.0519 36.8953 36.8953 36.7383 36.7383 36.5807 36.5807 36.4228 36.4228 36.2643 36.2643 36.1055 36.1055 35.9462 35.9462 35.7865 35.7865 35.6265 35.6265 35.4662 35.4662 35.3055 35.3055 35.1445 35.1445 34.9832 34.9832 34.8216 34.8216 34.6598 34.6598 34.4978 34.4978 34.3356 34.3356 34.1733 34.1733 34.0108 34.0108 33.8482 33.8482 33.6854 33.6854 33.5226 33.5226 33.3598 33.3598 33.1969 33.1969 33.034 33.034 32.8711 32.8711 32.7082 32.7082 32.5454 32.5454 32.3827 32.3827 32.22 32.22 32.0574 32.0574 31.895 31.895 31.7327 31.7327 31.5706 31.5706 31.4087 31.4087 31.247 31.247 31.0855 31.0855 30.9242 30.9242 30.7632 30.7632 30.6024 30.6024 30.4419 30.4419 30.2817 30.2817 30.1218 30.1218 29.9623 29.9623 29.803 29.803 29.6442 29.6442 29.4857 29.4857 29.3276 29.3276 29.1698 29.1698 29.0125 29.0125 28.8556 28.8556 28.6992 28.6992 28.5432 28.5432 28.3876 28.3876 28.2326 28.2326 28.078 28.078 27.9239 27.9239 27.7704 27.7704 27.6173 27.6173 27.4648 27.4648 27.3129 27.3129 27.1614 27.1614 27.0106 27.0106 26.8603 26.8603 26.7106 26.7106 26.5615 26.5615 26.4129 26.4129 26.2649 26.2649 26.1175 26.1175 25.9706 25.9706 25.8243 25.8243 25.6785 25.6785 25.5332 25.5332 25.3885 25.3885 25.2442 25.2442 25.1005 25.1005 24.9572 24.9572 24.8143 24.8143 24.6719 24.6719 24.5299 24.5299 24.3883 24.3883 24.2471 24.2471 24.1062 24.1062 23.9658 23.9658 23.8257 23.8257 23.6859 23.6859 23.5466 23.5466 23.4076 23.4076 23.2689 23.2689 23.1307 23.1307 22.9929 22.9929 22.8555 22.8555 22.7186 22.7186 22.5821 22.5821 22.4462 22.4462 22.3107 22.3107 22.1758 22.1758 22.0415 22.0415 21.9077 21.9077 21.7746 21.7746 21.6421 21.6421 21.5103 21.5103 21.3792 21.3792 21.2487 21.2487 21.1188 21.1188 20.9895 20.9895 20.8606 20.8606 20.7319 20.7319 20.6034 20.6034 20.4746 20.4746 20.3451 20.3451 20.2144 20.2144 20.0819 20.0819 19.9468 19.9468 19.8082 19.8082 19.6652 19.6652 19.5169 19.5169 19.3622 19.3622 19.2006 19.2006 19.0314 19.0314 18.8545 18.8545 18.6703 18.6703 18.4796 18.4796 18.2839 18.2839 18.0853 18.0853 17.8863 17.8863 17.6899 17.6899 17.499 17.499 17.3167 17.3167 17.1456 17.1456 16.9877 16.9877 16.8443 16.8443 16.7161 16.7161 16.6028 16.6028 16.5037 16.5037 16.4176 16.4176 16.3435 16.3435 16.2803 16.2803 16.2274 16.2274 16.1847 16.1847 16.1527 16.1527 16.1322 16.1322 16.1244 16.1244 16.1304 16.1304 16.1514 16.1514 16.1882 16.1882 16.2414 16.2414 16.3112 16.3112 16.3974 16.3974 16.4996 16.4996 16.617 16.617 16.7484 16.7484 16.8926 16.8926 17.0476 17.0476 17.2114 17.2114 17.3816 17.3816 17.5552 17.5552 17.7292 17.7292 17.9002 17.9002 18.0644 18.0644 18.2183 18.2183 18.3582 18.3582 18.4803 18.4803 18.5812 18.5812 18.6577 18.6577 18.7069 18.7069 18.7263 18.7263 18.7142 18.7142 18.6691 18.6691 18.5904 18.5904 18.478 18.478 18.3326 18.3326 18.1554 18.1554 17.9482 17.9482 17.7136 17.7136 17.4543 17.4543 17.1738 17.1738 16.8756 16.8756 16.5635 16.5635 16.2413 16.2413 15.9131 15.9131 15.5823 15.5823 15.2528 15.2528 14.9276 14.9276 14.6096 14.6096 14.3015 14.3015 14.0053 14.0053 13.7227 13.7227 13.4548 13.4548 13.2025 13.2025 12.9662 12.9662 12.7459 12.7459 12.5415 12.5415 12.3523 12.3523 12.1776 12.1776 12.0166 12.0166 11.8682 11.8682 11.7313 11.7313 11.6049 11.6049 11.4878 11.4878 11.3789 11.3789 11.2773 11.2773 11.1819 11.1819 11.092 11.092 11.0067 11.0067 10.9253 10.9253 10.8472 10.8472 10.7719 10.7719 10.6989 10.6989 10.6279 10.6279 10.5586 10.5586 10.4907 10.4907 10.424 10.424 10.3583 10.3583 10.2935 10.2935 10.2294 10.2294 10.1661 10.1661 10.1035 10.1035 10.0414 10.0414 9.9799 9.9799 9.91892 9.91892 9.85845 9.85845 9.79847 9.79847 9.73897 9.73897 9.67993 9.67993 9.62135 9.62135 9.56322 9.56322 9.50552 9.50552 9.44827 9.44827 9.39145 9.39145 9.33505 9.33505 9.27908 9.27908 9.22353 9.22353 9.16839 9.16839 9.11366 9.11366 9.05934 9.05934 9.00542 9.00542 8.9519 8.9519 8.89877 8.89877 8.84603 8.84603 8.79368 8.79368 8.74172 8.74172 8.69013 8.69013 8.63893 8.63893 8.58809 8.58809 8.53762 8.53762 8.48752 8.48752 8.43778 8.43778 8.3884 8.3884 8.33938 8.33938 8.29071 8.29071 8.24239 8.24239 8.19441 8.19441 8.14678 8.14678 8.09948 8.09948 8.05252 8.05252 8.0059 8.0059 7.9596 7.9596 7.91363 7.91363 7.86799 7.86799 7.82267 7.82267 7.77766 7.77766 7.73297 7.73297 7.68859 7.68859 7.64452 7.64452 7.60076 7.60076 7.5573 7.5573 7.51414 7.51414 7.47128 7.47128 7.42872 7.42872 7.38645 7.38645 7.34447 7.34447 7.30278 7.30278 7.26137 7.26137 7.22024 7.22024 7.1794 7.1794 7.13883 7.13883 7.09854 7.09854 7.05851 7.05851 7.01876 7.01876 6.97928 6.97928 6.94006 6.94006 6.90111 6.90111 6.86241 6.86241 6.82398 6.82398 6.7858 6.7858 6.74787 6.74787 6.71019 6.71019 6.67277 6.67277 6.63559 6.63559 6.59866 6.59866 6.56197 6.56197 6.52552 6.52552 6.48931 6.48931 6.45333 6.45333 6.41759 6.41759 6.38209 6.38209 6.34681 6.34681 6.31176 6.31176 6.27694 6.27694 6.24235 6.24235 6.20797 6.20797 6.17382 6.17382 6.13989 6.13989 6.10617 6.10617 6.07267 6.07267 6.03938 6.03938 6.0063 6.0063 5.97344 5.97344 5.94078 5.94078 5.90833 5.90833 5.87608 5.87608 5.84404 5.84404 5.8122 5.8122 5.78056 5.78056 5.74911 5.74911 5.71786 5.71786 5.68681 5.68681 5.65595 5.65595 5.62528 5.62528 5.5948 5.5948 5.56451 5.56451 5.53441 5.53441 5.50449 5.50449 5.47476 5.47476 5.44521 5.44521 5.41584 5.41584 5.38665 5.38665 5.35763 5.35763 5.3288 5.3288 5.30014 5.30014 5.27165 5.27165 5.24333 5.24333 5.21519 5.21519 5.18721 5.18721 5.15941 5.15941 5.13177 5.13177 5.1043 5.1043 5.07699 5.07699 5.04984 5.04984 5.02286 5.02286 4.99603 4.99603 4.96937 4.96937 4.94286 4.94286 4.91651 4.91651 4.89031 4.89031 4.86427 4.86427 4.83839 4.83839 4.81265 4.81265 4.78707 4.78707 4.76163 4.76163 4.73634 4.73634 4.71121 4.71121 4.68621 4.68621 4.66136 4.66136 4.63666 4.63666 4.6121 4.6121 4.58768 4.58768 4.5634 4.5634 4.53926 4.53926 4.51526 4.51526 4.4914 4.4914 4.46767 4.46767 4.44408 4.44408 4.42062 4.42062 4.3973 4.3973 4.37411 4.37411 4.35105 4.35105 4.32812 4.32812 4.30532 4.30532 4.28265 4.28265 4.2601 4.2601 4.23769 4.23769 4.2154 4.2154 4.19323 4.19323 4.17119 4.17119 4.14927 4.14927 4.12747 4.12747 4.10579 4.10579 4.08424 4.08424 4.0628 4.0628 4.04148 4.04148 4.02028 4.02028 3.9992 3.9992 3.97823 3.97823 3.95738 3.95738 3.93664 3.93664 3.91601 3.91601 3.8955 3.8955 3.8751 3.8751 3.85481 3.85481 3.83463 3.83463 3.81456 3.81456 3.7946 3.7946 3.77475 3.77475 3.75501 3.75501 3.73537 3.73537 3.71583 3.71583 3.6964 3.6964 3.67708 3.67708 3.65786 3.65786 3.63874 3.63874 3.61972 3.61972 3.60081 3.60081 3.582 3.582 3.56328 3.56328 3.54467 3.54467 3.52615 3.52615 3.50773 3.50773 3.48941 3.48941 3.47119 3.47119 3.45306 3.45306 3.43502 3.43502 3.41708 3.41708 3.39924 3.39924 3.38149 3.38149 3.36383 3.36383 3.34626 3.34626 3.32878 3.32878 3.3114 3.3114 3.2941 3.2941 3.2769 3.2769 3.25978 3.25978 3.24275 3.24275 3.22581 3.22581 3.20896 3.20896 3.19219 3.19219 3.17551 3.17551 3.15891 3.15891 3.1424 3.1424 3.12598 3.12598 3.10963 3.10963 3.09337 3.09337 3.0772 3.0772 3.0611 3.0611 3.04509 3.04509 3.02916 3.02916 3.0133 3.0133 2.99753 2.99753 2.98184 2.98184 2.96622 2.96622 2.95069 2.95069 2.93523 2.93523 2.91985 2.91985 2.90455 2.90455 2.88932 2.88932 2.87417 2.87417 2.85909 2.85909 2.84409 2.84409 2.82917 2.82917 2.81431 2.81431 2.79954 2.79954 2.78483 2.78483 2.7702 2.7702 2.75563 2.75563 2.74114 2.74114 2.72673 2.72673 2.71238 2.71238 2.6981 2.6981 2.68389 2.68389 2.66975 2.66975 2.65568 2.65568 2.64168 2.64168 2.62775 2.62775 2.61388 2.61388 2.60009 2.60009 2.58635 2.58635 2.57269 2.57269 2.55909 2.55909 2.54556 2.54556 2.53209 2.53209 2.51868 2.51868 2.50535 2.50535 2.49207 2.49207 2.47886 2.47886 2.46571 2.46571 2.45262 2.45262 2.4396 2.4396 2.42664 2.42664 2.41374 2.41374 2.4009 2.4009 2.38812 2.38812 2.3754 2.3754 2.36275 2.36275 2.35015 2.35015 2.33761 2.33761 2.32513 2.32513 2.31271 2.31271 2.30035 2.30035 2.28805 2.28805 2.2758 2.2758 2.26361 2.26361 2.25148 2.25148 2.2394 2.2394 2.22738 2.22738 2.21542 2.21542 2.20351 2.20351 2.19166 2.19166 2.17986 2.17986 2.16812 2.16812 2.15643 2.15643 2.14479 2.14479 2.13321 2.13321 2.12169 2.12169 2.11021 2.11021 2.09879 2.09879 2.08742 2.08742 2.0761 2.0761 2.06483 2.06483 2.05362 2.05362 2.04246 2.04246 2.03134 2.03134 2.02028 2.02028 2.00927 2.00927 1.99831 1.99831 1.9874 1.9874 1.97653 1.97653 1.96572 1.96572 1.95496 1.95496 1.94424 1.94424 1.93357 1.93357 1.92295 1.92295 1.91238 1.91238 1.90186 1.90186 1.89138 1.89138 1.88095 1.88095 1.87057 1.87057 1.86023 1.86023 1.84994 1.84994 1.83969 1.83969 1.82949 1.82949 1.81934 1.81934 1.80923 1.80923 1.79916 1.79916 1.78914 1.78914 1.77917 1.77917 1.76924 1.76924 1.75935 1.75935 1.74951 1.74951 1.73971 1.73971 1.72995 1.72995 1.72023 1.72023 1.71056 1.71056 1.70093 1.70093 1.69134 1.69134 1.6818 1.6818 1.67229 1.67229 1.66283 1.66283 1.65341 1.65341 1.64403 1.64403 1.63469 1.63469 1.62539 1.62539 1.61613 1.61613 1.60691 1.60691 1.59773 1.59773 1.5886 1.5886 1.5795 1.5795 1.57044 1.57044 1.56141 1.56141 1.55243 1.55243 1.54349 1.54349 1.53458 1.53458 1.52571 1.52571 1.51689 1.51689 1.50809 1.50809 1.49934 1.49934 1.49062 1.49062 1.48194 1.48194 1.4733 1.4733 1.46469 1.46469 1.45612 1.45612 1.44759 1.44759 1.4391 1.4391 1.43063 1.43063 1.42221 1.42221 1.41382 1.41382 1.40547 1.40547 1.39715 1.39715 1.38886 1.38886 1.38061 1.38061 1.3724 1.3724 1.36422 1.36422 1.35607 1.35607 1.34796 1.34796 1.33989 1.33989 1.33184 1.33184 1.32383 1.32383 1.31586 1.31586 1.30791 1.30791 1.3 1.3 1.29212 1.29212 1.28428 1.28428 1.27647 1.27647 1.26869 1.26869 1.26094 1.26094 1.25322 1.25322 1.24554 1.24554 1.23789 1.23789 1.23027 1.23027 1.22268 1.22268 1.21512 1.21512 1.20759 1.20759 1.2001 1.2001 1.19263 1.19263 1.1852 1.1852 1.17779 1.17779 1.17042 1.17042 1.16308 1.16308 1.15576 1.15576 1.14848 1.14848 1.14122 1.14122 1.134 1.134 1.1268 1.1268 1.11964 1.11964 1.1125 1.1125 1.10539 1.10539 1.09831 1.09831 1.09126 1.09126 1.08424 1.08424 1.07724 1.07724 1.07028 1.07028 1.06334 1.06334 1.05643 1.05643 1.04955 1.04955 1.04269 1.04269 1.03587 1.03587 1.02907 1.02907 1.0223 1.0223 1.01555 1.01555 1.00883 1.00883 1.00214 1.00214 0.995475 0.995475 0.988837 0.988837 0.982225 0.982225 0.97564 0.97564 0.96908 0.96908 0.962547 0.962547 0.956039 0.956039 0.949557 0.949557 0.943101 0.943101 0.936671 0.936671 0.930266 0.930266 0.923886 0.923886 0.917531 0.917531 0.911201 0.911201 0.904897 0.904897 0.898617 0.898617 0.892361 0.892361 0.886131 0.886131 0.879924 0.879924 0.873742 0.873742 0.867584 0.867584 0.861451 0.861451 0.855341 0.855341 0.849255 0.849255 0.843193 0.843193 0.837154 0.837154 0.831139 0.831139 0.825147 0.825147 0.819179 0.819179 0.813233 0.813233 0.807311 0.807311 0.801412 0.801412 0.795535 0.795535 0.789682 0.789682 0.783851 0.783851 0.778042 0.778042 0.772256 0.772256 0.766492 0.766492 0.76075 0.76075 0.755031 0.755031 0.749333 0.749333 0.743657 0.743657 0.738003 0.738003 0.732371 0.732371 0.72676 0.72676 0.721171 0.721171 0.715603 0.715603 0.710057 0.710057 0.704531 0.704531 0.699027 0.699027 0.693543 0.693543 0.688081 0.688081 0.682639 0.682639 0.677218 0.677218 0.671817 0.671817 0.666438 0.666438 0.661078 0.661078 0.655739 0.655739 0.650419 0.650419 0.645121 0.645121 0.639841 0.639841 0.634582 0.634582 0.629343 0.629343 0.624124 0.624124 0.618924 0.618924 0.613744 0.613744 0.608583 0.608583 0.603442 0.603442 0.598319 0.598319 0.593216 0.593216 0.588133 0.588133 0.583068 0.583068 0.578022 0.578022 0.572995 0.572995 0.567987 0.567987 0.562998 0.562998 0.558027 0.558027 0.553074 0.553074 0.54814 0.54814 0.543225 0.543225 0.538327 0.538327 0.533448 0.533448 0.528587 0.528587 0.523744 0.523744 0.518919 0.518919 0.514112 0.514112 0.509322 0.509322 0.504551 0.504551 0.499796 0.499796 0.49506 0.49506 0.490341 0.490341 0.485639 0.485639 0.480955 0.480955 0.476287 0.476287 0.471637 0.471637 0.467004 0.467004 0.462388 0.462388 0.457789 0.457789 0.453207 0.453207 0.448642 0.448642 0.444093 0.444093 0.439561 0.439561 0.435045 0.435045 0.430546 0.430546 0.426064 0.426064 0.421597 0.421597 0.417147 0.417147 0.412713 0.412713 0.408296 0.408296 0.403894 0.403894 0.399508 0.399508 0.395138 0.395138 0.390785 0.390785 0.386446 0.386446 0.382124 0.382124 0.377817 0.377817 0.373526 0.373526 0.36925 0.36925 0.36499 0.36499 0.360745 0.360745 0.356515 0.356515 0.3523 0.3523 0.348101 0.348101 0.343917 0.343917 0.339748 0.339748 0.335594 0.335594 0.331454 0.331454 0.32733 0.32733 0.32322 0.32322 0.319125 0.319125 0.315045 0.315045 0.310979 0.310979 0.306928 0.306928 0.302891 0.302891 0.298869 0.298869 0.294861 0.294861 0.290868 0.290868 0.286888 0.286888 0.282923 0.282923 0.278971 0.278971 0.275034 0.275034 0.271111 0.271111 0.267202 0.267202 0.263306 0.263306 0.259425 0.259425 0.255557 0.255557 0.251703 0.251703 0.247862 0.247862 0.244035 0.244035 0.240222 0.240222 0.236422 0.236422 0.232635 0.232635 0.228862 0.228862 0.225102 0.225102 0.221355 0.221355 0.217621 0.217621 0.213901 0.213901 0.210194 0.210194 0.206499 0.206499 0.202818 0.202818 0.199149 0.199149 0.195494 0.195494 0.191851 0.191851 0.188221 0.188221 0.184603 0.184603 0.180998 0.180998 0.177406 0.177406 0.173826 0.173826 0.170259 0.170259 0.166704 0.166704 0.163162 0.163162 0.159632 0.159632 0.156114 0.156114 0.152609 0.152609 0.149115 0.149115 0.145634 0.145634 0.142165 0.142165 0.138707 0.138707 0.135262 0.135262 0.131829 0.131829 0.128408 0.128408 0.124998 0.124998 0.1216 0.1216 0.118214 0.118214 0.11484 0.11484 0.111477 0.111477 0.108126 0.108126 0.104787 0.104787 0.101458 0.101458 0.0981418 0.0981418 0.0948366 0.0948366 0.0915427 0.0915427 0.0882602 0.0882602 0.0849889 0.0849889 0.0817288 0.0817288 0.07848 0.07848 0.0752422 0.0752422 0.0720155 0.0720155 0.0687999 0.0687999 0.0655953 0.0655953 0.0624016 0.0624016 0.0592188 0.0592188 0.056047 0.056047 0.0528859 0.0528859 0.0497356 0.0497356 0.046596 0.046596 0.0434672 0.0434672 0.0403489 0.0403489 0.0372413 0.0372413 0.0341443 0.0341443 0.0310578 0.0310578 0.0279817 0.0279817 0.0249161 0.0249161 0.0218609 0.0218609 0.0188161 0.0188161 0.0157816 0.0157816 0.0127573 0.0127573 0.00974331 0.00974331 0.00673949 0.00673949 0.00374583 0.00374583 0.000762276 0.000762276 -0.0022112 -0.0022112 -0.00517464 -0.00517464 -0.00812808 -0.00812808 -0.0110716 -0.0110716 -0.0140051 -0.0140051 -0.0169288 -0.0169288 -0.0198427 -0.0198427 -0.0227467 -0.0227467 -0.025641 -0.025641 -0.0285256 -0.0285256 -0.0314005 -0.0314005 -0.0342657 -0.0342657 -0.0371213 -0.0371213 -0.0399673 -0.0399673 -0.0428038 -0.0428038 -0.0456309 -0.0456309 -0.0484484 -0.0484484 -0.0512565 -0.0512565 -0.0540552 -0.0540552 -0.0568446 -0.0568446 -0.0596247 -0.0596247 -0.0623955 -0.0623955 -0.065157 -0.065157 -0.0679093 -0.0679093 -0.0706525 -0.0706525 -0.0733865 -0.0733865 -0.0761114 -0.0761114 -0.0788272 -0.0788272 -0.081534 -0.081534 -0.0842318 -0.0842318 -0.0869207 -0.0869207 -0.0896006 -0.0896006 -0.0922716 -0.0922716 -0.0949338 -0.0949338 -0.0975871 -0.0975871 -0.100232 -0.100232 -0.102867 -0.102867 -0.105494 -0.105494 -0.108113 -0.108113 -0.110723 -0.110723 -0.113324 -0.113324 -0.115916 -0.115916 -0.1185 -0.1185 -0.121075 -0.121075 -0.123642 -0.123642 -0.126201 -0.126201 -0.128751 -0.128751 -0.131292 -0.131292 -0.133825 -0.133825 -0.13635 -0.13635 -0.138867 -0.138867 -0.141375 -0.141375 -0.143875 -0.143875 -0.146367 -0.146367 -0.148851 -0.148851 -0.151326 -0.151326 -0.153794 -0.153794 -0.156253 -0.156253 -0.158704 -0.158704 -0.161147 -0.161147 -0.163583 -0.163583 -0.16601 -0.16601 -0.168429 -0.168429 -0.170841 -0.170841 -0.173244 -0.173244 -0.17564 -0.17564 -0.178028 -0.178028 -0.180408 -0.180408 -0.18278 -0.18278 -0.185145 -0.185145 -0.187501 -0.187501 -0.189851 -0.189851 -0.192192 -0.192192 -0.194526 -0.194526 -0.196852 -0.196852 -0.199171 -0.199171 -0.201482 -0.201482 -0.203786 -0.203786 -0.206082 -0.206082 -0.208371 -0.208371 -0.210652 -0.210652 -0.212926 -0.212926 -0.215193 -0.215193 -0.217452 -0.217452 -0.219704 -0.219704 -0.221949 -0.221949 -0.224186 -0.224186 -0.226416 -0.226416 -0.228639 -0.228639 -0.230855 -0.230855 -0.233063 -0.233063 -0.235265 -0.235265 -0.237459 -0.237459 -0.239646 -0.239646 -0.241826 -0.241826 -0.244 -0.244 -0.246166 -0.246166 -0.248325 -0.248325 -0.250477 -0.250477 -0.252622 -0.252622 -0.254761 -0.254761 -0.256892 -0.256892 -0.259017 -0.259017 -0.261135 -0.261135 -0.263246 -0.263246 -0.26535 -0.26535 -0.267448 -0.267448 -0.269539 -0.269539 -0.271623 -0.271623 -0.2737 -0.2737 -0.275771 -0.275771 -0.277835 -0.277835 -0.279892 -0.279892 -0.281943 -0.281943 -0.283988 -0.283988 -0.286026 -0.286026 -0.288057 -0.288057 -0.290082 -0.290082 -0.2921 -0.2921 -0.294112 -0.294112 -0.296117 -0.296117 -0.298116 -0.298116 -0.300109 -0.300109 -0.302096 -0.302096 -0.304076 -0.304076 -0.306049 -0.306049 -0.308017 -0.308017 -0.309978 -0.309978 -0.311933 -0.311933 -0.313882 -0.313882 -0.315824 -0.315824 -0.31776 -0.31776 -0.319691 -0.319691 -0.321615 -0.321615 -0.323533 -0.323533 -0.325444 -0.325444 -0.32735 -0.32735 -0.32925 -0.32925 -0.331144 -0.331144 -0.333031 -0.333031 -0.334913 -0.334913 -0.336789 -0.336789 -0.338659 -0.338659 -0.340523 -0.340523 -0.342381 -0.342381 -0.344233 -0.344233 -0.346079 -0.346079 -0.347919 -0.347919 -0.349754 -0.349754 -0.351583 -0.351583 -0.353406 -0.353406 -0.355223 -0.355223 -0.357035 -0.357035 -0.358841 -0.358841 -0.360641 -0.360641 -0.362435 -0.362435 -0.364224 -0.364224 -0.366007 -0.366007 -0.367785 -0.367785 -0.369557 -0.369557 -0.371323 -0.371323 -0.373084 -0.373084 -0.37484 -0.37484 -0.376589 -0.376589 -0.378334 -0.378334 -0.380072 -0.380072 -0.381806 -0.381806 -0.383534 -0.383534 -0.385256 -0.385256 -0.386973 -0.386973 -0.388685 -0.388685 -0.390391 -0.390391 -0.392092 -0.392092 -0.393788 -0.393788 -0.395478 -0.395478 -0.397163 -0.397163 -0.398843 -0.398843 -0.400517 -0.400517 -0.402187 -0.402187 -0.403851 -0.403851 -0.405509 -0.405509 -0.407163 -0.407163 -0.408812 -0.408812 -0.410455 -0.410455 -0.412093 -0.412093 -0.413726 -0.413726 -0.415354 -0.415354 -0.416977 -0.416977 -0.418595 -0.418595 -0.420207 -0.420207 -0.421815 -0.421815 -0.423418 -0.423418 -0.425016 -0.425016 -0.426608 -0.426608 -0.428196 -0.428196 -0.429779 -0.429779 -0.431357 -0.431357 -0.43293 -0.43293 -0.434498 -0.434498 -0.436061 -0.436061 -0.437619 -0.437619 -0.439173 -0.439173 -0.440722 -0.440722 -0.442265 -0.442265 -0.443805 -0.443805 -0.445339 -0.445339 -0.446868 -0.446868 -0.448393 -0.448393 -0.449913 -0.449913 -0.451428 -0.451428 -0.452939 -0.452939 -0.454445 -0.454445 -0.455946 -0.455946 -0.457443 -0.457443 -0.458935 -0.458935 -0.460422 -0.460422 -0.461905 -0.461905 -0.463383 -0.463383 -0.464856 -0.464856 -0.466325 -0.466325 -0.46779 -0.46779 -0.46925 -0.46925 -0.470705 -0.470705 -0.472156 -0.472156 -0.473602 -0.473602 -0.475044 -0.475044 -0.476482 -0.476482 -0.477915 -0.477915 -0.479343 -0.479343 -0.480767 -0.480767 -0.482187 -0.482187 -0.483603 -0.483603 -0.485014 -0.485014 -0.48642 -0.48642 -0.487823 -0.487823 -0.489221 -0.489221 -0.490614 -0.490614 -0.492004 -0.492004 -0.493389 -0.493389 -0.49477 -0.49477 -0.496146 -0.496146 -0.497519 -0.497519 -0.498887 -0.498887 -0.500251 -0.500251 -0.50161 -0.50161 -0.502966 -0.502966 -0.504317 -0.504317 -0.505664 -0.505664 -0.507007 -0.507007 -0.508346 -0.508346 -0.509681 -0.509681 -0.511012 -0.511012 -0.512338 -0.512338 -0.513661 -0.513661 -0.514979 -0.514979 -0.516293 -0.516293 -0.517604 -0.517604 -0.51891 -0.51891 -0.520212 -0.520212 -0.