# vtk DataFile Version 3.0
#This file was generated by the deal.II library on 2020/9/6 at 3:08:53
ASCII
DATASET UNSTRUCTURED_GRID

POINTS 4096 double
1.5 0 0
1.59692 0 0
1.59692 0 0
1.69385 0 0
1.69385 0 0
1.79077 0 0
1.79077 0 0
1.8877 0 0
1.8877 0 0
1.98462 0 0
1.98462 0 0
2.08154 0 0
2.08154 0 0
2.17847 0 0
2.17847 0 0
2.27539 0 0
2.27539 0 0
2.37231 0 0
2.37231 0 0
2.46924 0 0
2.46924 0 0
2.56616 0 0
2.56616 0 0
2.66309 0 0
2.66309 0 0
2.76001 0 0
2.76001 0 0
2.85693 0 0
2.85693 0 0
2.95386 0 0
2.95386 0 0
3.05078 0 0
3.05078 0 0
3.14771 0 0
3.14771 0 0
3.24463 0 0
3.24463 0 0
3.34155 0 0
3.34155 0 0
3.43848 0 0
3.43848 0 0
3.5354 0 0
3.5354 0 0
3.63232 0 0
3.63232 0 0
3.72925 0 0
3.72925 0 0
3.82617 0 0
3.82617 0 0
3.9231 0 0
3.9231 0 0
4.02002 0 0
4.02002 0 0
4.11694 0 0
4.11694 0 0
4.21387 0 0
4.21387 0 0
4.31079 0 0
4.31079 0 0
4.40771 0 0
4.40771 0 0
4.50464 0 0
4.50464 0 0
4.60156 0 0
4.60156 0 0
4.69849 0 0
4.69849 0 0
4.79541 0 0
4.79541 0 0
4.89233 0 0
4.89233 0 0
4.98926 0 0
4.98926 0 0
5.08618 0 0
5.08618 0 0
5.18311 0 0
5.18311 0 0
5.28003 0 0
5.28003 0 0
5.37695 0 0
5.37695 0 0
5.47388 0 0
5.47388 0 0
5.5708 0 0
5.5708 0 0
5.66772 0 0
5.66772 0 0
5.76465 0 0
5.76465 0 0
5.86157 0 0
5.86157 0 0
5.9585 0 0
5.9585 0 0
6.05542 0 0
6.05542 0 0
6.15234 0 0
6.15234 0 0
6.24927 0 0
6.24927 0 0
6.34619 0 0
6.34619 0 0
6.44312 0 0
6.44312 0 0
6.54004 0 0
6.54004 0 0
6.63696 0 0
6.63696 0 0
6.73389 0 0
6.73389 0 0
6.83081 0 0
6.83081 0 0
6.92773 0 0
6.92773 0 0
7.02466 0 0
7.02466 0 0
7.12158 0 0
7.12158 0 0
7.21851 0 0
7.21851 0 0
7.31543 0 0
7.31543 0 0
7.41235 0 0
7.41235 0 0
7.50928 0 0
7.50928 0 0
7.6062 0 0
7.6062 0 0
7.70312 0 0
7.70312 0 0
7.80005 0 0
7.80005 0 0
7.89697 0 0
7.89697 0 0
7.9939 0 0
7.9939 0 0
8.09082 0 0
8.09082 0 0
8.18774 0 0
8.18774 0 0
8.28467 0 0
8.28467 0 0
8.38159 0 0
8.38159 0 0
8.47852 0 0
8.47852 0 0
8.57544 0 0
8.57544 0 0
8.67236 0 0
8.67236 0 0
8.76929 0 0
8.76929 0 0
8.86621 0 0
8.86621 0 0
8.96313 0 0
8.96313 0 0
9.06006 0 0
9.06006 0 0
9.15698 0 0
9.15698 0 0
9.25391 0 0
9.25391 0 0
9.35083 0 0
9.35083 0 0
9.44775 0 0
9.44775 0 0
9.54468 0 0
9.54468 0 0
9.6416 0 0
9.6416 0 0
9.73853 0 0
9.73853 0 0
9.83545 0 0
9.83545 0 0
9.93237 0 0
9.93237 0 0
10.0293 0 0
10.0293 0 0
10.1262 0 0
10.1262 0 0
10.2231 0 0
10.2231 0 0
10.3201 0 0
10.3201 0 0
10.417 0 0
10.417 0 0
10.5139 0 0
10.5139 0 0
10.6108 0 0
10.6108 0 0
10.7078 0 0
10.7078 0 0
10.8047 0 0
10.8047 0 0
10.9016 0 0
10.9016 0 0
10.9985 0 0
10.9985 0 0
11.0955 0 0
11.0955 0 0
11.1924 0 0
11.1924 0 0
11.2893 0 0
11.2893 0 0
11.3862 0 0
11.3862 0 0
11.4832 0 0
11.4832 0 0
11.5801 0 0
11.5801 0 0
11.677 0 0
11.677 0 0
11.7739 0 0
11.7739 0 0
11.8708 0 0
11.8708 0 0
11.9678 0 0
11.9678 0 0
12.0647 0 0
12.0647 0 0
12.1616 0 0
12.1616 0 0
12.2585 0 0
12.2585 0 0
12.3555 0 0
12.3555 0 0
12.4524 0 0
12.4524 0 0
12.5493 0 0
12.5493 0 0
12.6462 0 0
12.6462 0 0
12.7432 0 0
12.7432 0 0
12.8401 0 0
12.8401 0 0
12.937 0 0
12.937 0 0
13.0339 0 0
13.0339 0 0
13.1309 0 0
13.1309 0 0
13.2278 0 0
13.2278 0 0
13.3247 0 0
13.3247 0 0
13.4216 0 0
13.4216 0 0
13.5186 0 0
13.5186 0 0
13.6155 0 0
13.6155 0 0
13.7124 0 0
13.7124 0 0
13.8093 0 0
13.8093 0 0
13.9062 0 0
13.9062 0 0
14.0032 0 0
14.0032 0 0
14.1001 0 0
14.1001 0 0
14.197 0 0
14.197 0 0
14.2939 0 0
14.2939 0 0
14.3909 0 0
14.3909 0 0
14.4878 0 0
14.4878 0 0
14.5847 0 0
14.5847 0 0
14.6816 0 0
14.6816 0 0
14.7786 0 0
14.7786 0 0
14.8755 0 0
14.8755 0 0
14.9724 0 0
14.9724 0 0
15.0693 0 0
15.0693 0 0
15.1663 0 0
15.1663 0 0
15.2632 0 0
15.2632 0 0
15.3601 0 0
15.3601 0 0
15.457 0 0
15.457 0 0
15.554 0 0
15.554 0 0
15.6509 0 0
15.6509 0 0
15.7478 0 0
15.7478 0 0
15.8447 0 0
15.8447 0 0
15.9417 0 0
15.9417 0 0
16.0386 0 0
16.0386 0 0
16.1355 0 0
16.1355 0 0
16.2324 0 0
16.2324 0 0
16.3293 0 0
16.3293 0 0
16.4263 0 0
16.4263 0 0
16.5232 0 0
16.5232 0 0
16.6201 0 0
16.6201 0 0
16.717 0 0
16.717 0 0
16.814 0 0
16.814 0 0
16.9109 0 0
16.9109 0 0
17.0078 0 0
17.0078 0 0
17.1047 0 0
17.1047 0 0
17.2017 0 0
17.2017 0 0
17.2986 0 0
17.2986 0 0
17.3955 0 0
17.3955 0 0
17.4924 0 0
17.4924 0 0
17.5894 0 0
17.5894 0 0
17.6863 0 0
17.6863 0 0
17.7832 0 0
17.7832 0 0
17.8801 0 0
17.8801 0 0
17.9771 0 0
17.9771 0 0
18.074 0 0
18.074 0 0
18.1709 0 0
18.1709 0 0
18.2678 0 0
18.2678 0 0
18.3647 0 0
18.3647 0 0
18.4617 0 0
18.4617 0 0
18.5586 0 0
18.5586 0 0
18.6555 0 0
18.6555 0 0
18.7524 0 0
18.7524 0 0
18.8494 0 0
18.8494 0 0
18.9463 0 0
18.9463 0 0
19.0432 0 0
19.0432 0 0
19.1401 0 0
19.1401 0 0
19.2371 0 0
19.2371 0 0
19.334 0 0
19.334 0 0
19.4309 0 0
19.4309 0 0
19.5278 0 0
19.5278 0 0
19.6248 0 0
19.6248 0 0
19.7217 0 0
19.7217 0 0
19.8186 0 0
19.8186 0 0
19.9155 0 0
19.9155 0 0
20.0125 0 0
20.0125 0 0
20.1094 0 0
20.1094 0 0
20.2063 0 0
20.2063 0 0
20.3032 0 0
20.3032 0 0
20.4001 0 0
20.4001 0 0
20.4971 0 0
20.4971 0 0
20.594 0 0
20.594 0 0
20.6909 0 0
20.6909 0 0
20.7878 0 0
20.7878 0 0
20.8848 0 0
20.8848 0 0
20.9817 0 0
20.9817 0 0
21.0786 0 0
21.0786 0 0
21.1755 0 0
21.1755 0 0
21.2725 0 0
21.2725 0 0
21.3694 0 0
21.3694 0 0
21.4663 0 0
21.4663 0 0
21.5632 0 0
21.5632 0 0
21.6602 0 0
21.6602 0 0
21.7571 0 0
21.7571 0 0
21.854 0 0
21.854 0 0
21.9509 0 0
21.9509 0 0
22.0479 0 0
22.0479 0 0
22.1448 0 0
22.1448 0 0
22.2417 0 0
22.2417 0 0
22.3386 0 0
22.3386 0 0
22.4355 0 0
22.4355 0 0
22.5325 0 0
22.5325 0 0
22.6294 0 0
22.6294 0 0
22.7263 0 0
22.7263 0 0
22.8232 0 0
22.8232 0 0
22.9202 0 0
22.9202 0 0
23.0171 0 0
23.0171 0 0
23.114 0 0
23.114 0 0
23.2109 0 0
23.2109 0 0
23.3079 0 0
23.3079 0 0
23.4048 0 0
23.4048 0 0
23.5017 0 0
23.5017 0 0
23.5986 0 0
23.5986 0 0
23.6956 0 0
23.6956 0 0
23.7925 0 0
23.7925 0 0
23.8894 0 0
23.8894 0 0
23.9863 0 0
23.9863 0 0
24.0833 0 0
24.0833 0 0
24.1802 0 0
24.1802 0 0
24.2771 0 0
24.2771 0 0
24.374 0 0
24.374 0 0
24.4709 0 0
24.4709 0 0
24.5679 0 0
24.5679 0 0
24.6648 0 0
24.6648 0 0
24.7617 0 0
24.7617 0 0
24.8586 0 0
24.8586 0 0
24.9556 0 0
24.9556 0 0
25.0525 0 0
25.0525 0 0
25.1494 0 0
25.1494 0 0
25.2463 0 0
25.2463 0 0
25.3433 0 0
25.3433 0 0
25.4402 0 0
25.4402 0 0
25.5371 0 0
25.5371 0 0
25.634 0 0
25.634 0 0
25.731 0 0
25.731 0 0
25.8279 0 0
25.8279 0 0
25.9248 0 0
25.9248 0 0
26.0217 0 0
26.0217 0 0
26.1187 0 0
26.1187 0 0
26.2156 0 0
26.2156 0 0
26.3125 0 0
26.3125 0 0
26.4094 0 0
26.4094 0 0
26.5063 0 0
26.5063 0 0
26.6033 0 0
26.6033 0 0
26.7002 0 0
26.7002 0 0
26.7971 0 0
26.7971 0 0
26.894 0 0
26.894 0 0
26.991 0 0
26.991 0 0
27.0879 0 0
27.0879 0 0
27.1848 0 0
27.1848 0 0
27.2817 0 0
27.2817 0 0
27.3787 0 0
27.3787 0 0
27.4756 0 0
27.4756 0 0
27.5725 0 0
27.5725 0 0
27.6694 0 0
27.6694 0 0
27.7664 0 0
27.7664 0 0
27.8633 0 0
27.8633 0 0
27.9602 0 0
27.9602 0 0
28.0571 0 0
28.0571 0 0
28.1541 0 0
28.1541 0 0
28.251 0 0
28.251 0 0
28.3479 0 0
28.3479 0 0
28.4448 0 0
28.4448 0 0
28.5417 0 0
28.5417 0 0
28.6387 0 0
28.6387 0 0
28.7356 0 0
28.7356 0 0
28.8325 0 0
28.8325 0 0
28.9294 0 0
28.9294 0 0
29.0264 0 0
29.0264 0 0
29.1233 0 0
29.1233 0 0
29.2202 0 0
29.2202 0 0
29.3171 0 0
29.3171 0 0
29.4141 0 0
29.4141 0 0
29.511 0 0
29.511 0 0
29.6079 0 0
29.6079 0 0
29.7048 0 0
29.7048 0 0
29.8018 0 0
29.8018 0 0
29.8987 0 0
29.8987 0 0
29.9956 0 0
29.9956 0 0
30.0925 0 0
30.0925 0 0
30.1895 0 0
30.1895 0 0
30.2864 0 0
30.2864 0 0
30.3833 0 0
30.3833 0 0
30.4802 0 0
30.4802 0 0
30.5771 0 0
30.5771 0 0
30.6741 0 0
30.6741 0 0
30.771 0 0
30.771 0 0
30.8679 0 0
30.8679 0 0
30.9648 0 0
30.9648 0 0
31.0618 0 0
31.0618 0 0
31.1587 0 0
31.1587 0 0
31.2556 0 0
31.2556 0 0
31.3525 0 0
31.3525 0 0
31.4495 0 0
31.4495 0 0
31.5464 0 0
31.5464 0 0
31.6433 0 0
31.6433 0 0
31.7402 0 0
31.7402 0 0
31.8372 0 0
31.8372 0 0
31.9341 0 0
31.9341 0 0
32.031 0 0
32.031 0 0
32.1279 0 0
32.1279 0 0
32.2249 0 0
32.2249 0 0
32.3218 0 0
32.3218 0 0
32.4187 0 0
32.4187 0 0
32.5156 0 0
32.5156 0 0
32.6125 0 0
32.6125 0 0
32.7095 0 0
32.7095 0 0
32.8064 0 0
32.8064 0 0
32.9033 0 0
32.9033 0 0
33.0002 0 0
33.0002 0 0
33.0972 0 0
33.0972 0 0
33.1941 0 0
33.1941 0 0
33.291 0 0
33.291 0 0
33.3879 0 0
33.3879 0 0
33.4849 0 0
33.4849 0 0
33.5818 0 0
33.5818 0 0
33.6787 0 0
33.6787 0 0
33.7756 0 0
33.7756 0 0
33.8726 0 0
33.8726 0 0
33.9695 0 0
33.9695 0 0
34.0664 0 0
34.0664 0 0
34.1633 0 0
34.1633 0 0
34.2603 0 0
34.2603 0 0
34.3572 0 0
34.3572 0 0
34.4541 0 0
34.4541 0 0
34.551 0 0
34.551 0 0
34.6479 0 0
34.6479 0 0
34.7449 0 0
34.7449 0 0
34.8418 0 0
34.8418 0 0
34.9387 0 0
34.9387 0 0
35.0356 0 0
35.0356 0 0
35.1326 0 0
35.1326 0 0
35.2295 0 0
35.2295 0 0
35.3264 0 0
35.3264 0 0
35.4233 0 0
35.4233 0 0
35.5203 0 0
35.5203 0 0
35.6172 0 0
35.6172 0 0
35.7141 0 0
35.7141 0 0
35.811 0 0
35.811 0 0
35.908 0 0
35.908 0 0
36.0049 0 0
36.0049 0 0
36.1018 0 0
36.1018 0 0
36.1987 0 0
36.1987 0 0
36.2957 0 0
36.2957 0 0
36.3926 0 0
36.3926 0 0
36.4895 0 0
36.4895 0 0
36.5864 0 0
36.5864 0 0
36.6833 0 0
36.6833 0 0
36.7803 0 0
36.7803 0 0
36.8772 0 0
36.8772 0 0
36.9741 0 0
36.9741 0 0
37.071 0 0
37.071 0 0
37.168 0 0
37.168 0 0
37.2649 0 0
37.2649 0 0
37.3618 0 0
37.3618 0 0
37.4587 0 0
37.4587 0 0
37.5557 0 0
37.5557 0 0
37.6526 0 0
37.6526 0 0
37.7495 0 0
37.7495 0 0
37.8464 0 0
37.8464 0 0
37.9434 0 0
37.9434 0 0
38.0403 0 0
38.0403 0 0
38.1372 0 0
38.1372 0 0
38.2341 0 0
38.2341 0 0
38.3311 0 0
38.3311 0 0
38.428 0 0
38.428 0 0
38.5249 0 0
38.5249 0 0
38.6218 0 0
38.6218 0 0
38.7188 0 0
38.7188 0 0
38.8157 0 0
38.8157 0 0
38.9126 0 0
38.9126 0 0
39.0095 0 0
39.0095 0 0
39.1064 0 0
39.1064 0 0
39.2034 0 0
39.2034 0 0
39.3003 0 0
39.3003 0 0
39.3972 0 0
39.3972 0 0
39.4941 0 0
39.4941 0 0
39.5911 0 0
39.5911 0 0
39.688 0 0
39.688 0 0
39.7849 0 0
39.7849 0 0
39.8818 0 0
39.8818 0 0
39.9788 0 0
39.9788 0 0
40.0757 0 0
40.0757 0 0
40.1726 0 0
40.1726 0 0
40.2695 0 0
40.2695 0 0
40.3665 0 0
40.3665 0 0
40.4634 0 0
40.4634 0 0
40.5603 0 0
40.5603 0 0
40.6572 0 0
40.6572 0 0
40.7542 0 0
40.7542 0 0
40.8511 0 0
40.8511 0 0
40.948 0 0
40.948 0 0
41.0449 0 0
41.0449 0 0
41.1418 0 0
41.1418 0 0
41.2388 0 0
41.2388 0 0
41.3357 0 0
41.3357 0 0
41.4326 0 0
41.4326 0 0
41.5295 0 0
41.5295 0 0
[...]
POINT_DATA 4096
SCALARS solution_0 double 1
LOOKUP_TABLE default
5.915e+12 5.79245e+12 5.79245e+12 5.68911e+12 5.68911e+12 5.60111e+12 5.60111e+12 5.52543e+12 5.52543e+12 5.45977e+12 5.45977e+12 5.40231e+12 5.40231e+12 5.35159e+12 5.35159e+12 5.30646e+12 5.30646e+12 5.26597e+12 5.26597e+12 5.22937e+12 5.22937e+12 5.19602e+12 5.19602e+12 5.1654e+12 5.1654e+12 5.13709e+12 5.13709e+12 5.11073e+12 5.11073e+12 5.08601e+12 5.08601e+12 5.06267e+12 5.06267e+12 5.04051e+12 5.04051e+12 5.01934e+12 5.01934e+12 4.999e+12 4.999e+12 4.97936e+12 4.97936e+12 4.9603e+12 4.9603e+12 4.94174e+12 4.94174e+12 4.92357e+12 4.92357e+12 4.90574e+12 4.90574e+12 4.88818e+12 4.88818e+12 4.87084e+12 4.87084e+12 4.85366e+12 4.85366e+12 4.83662e+12 4.83662e+12 4.81967e+12 4.81967e+12 4.80279e+12 4.80279e+12 4.78595e+12 4.78595e+12 4.76913e+12 4.76913e+12 4.75231e+12 4.75231e+12 4.73548e+12 4.73548e+12 4.71862e+12 4.71862e+12 4.70172e+12 4.70172e+12 4.68477e+12 4.68477e+12 4.66777e+12 4.66777e+12 4.65071e+12 4.65071e+12 4.63358e+12 4.63358e+12 4.61638e+12 4.61638e+12 4.59911e+12 4.59911e+12 4.58176e+12 4.58176e+12 4.56433e+12 4.56433e+12 4.54683e+12 4.54683e+12 4.52925e+12 4.52925e+12 4.51159e+12 4.51159e+12 4.49385e+12 4.49385e+12 4.47604e+12 4.47604e+12 4.45815e+12 4.45815e+12 4.44019e+12 4.44019e+12 4.42217e+12 4.42217e+12 4.40407e+12 4.40407e+12 4.3859e+12 4.3859e+12 4.36768e+12 4.36768e+12 4.34939e+12 4.34939e+12 4.33104e+12 4.33104e+12 4.31264e+12 4.31264e+12 4.29419e+12 4.29419e+12 4.27568e+12 4.27568e+12 4.25713e+12 4.25713e+12 4.23854e+12 4.23854e+12 4.21991e+12 4.21991e+12 4.20123e+12 4.20123e+12 4.18253e+12 4.18253e+12 4.16379e+12 4.16379e+12 4.14502e+12 4.14502e+12 4.12623e+12 4.12623e+12 4.10741e+12 4.10741e+12 4.08858e+12 4.08858e+12 4.06972e+12 4.06972e+12 4.05085e+12 4.05085e+12 4.03198e+12 4.03198e+12 4.01309e+12 4.01309e+12 3.9942e+12 3.9942e+12 3.9753e+12 3.9753e+12 3.9564e+12 3.9564e+12 3.9375e+12 3.9375e+12 3.91861e+12 3.91861e+12 3.89973e+12 3.89973e+12 3.88085e+12 3.88085e+12 3.86199e+12 3.86199e+12 3.84313e+12 3.84313e+12 3.8243e+12 3.8243e+12 3.80548e+12 3.80548e+12 3.78668e+12 3.78668e+12 3.76791e+12 3.76791e+12 3.74916e+12 3.74916e+12 3.73043e+12 3.73043e+12 3.71174e+12 3.71174e+12 3.69307e+12 3.69307e+12 3.67444e+12 3.67444e+12 3.65584e+12 3.65584e+12 3.63727e+12 3.63727e+12 3.61874e+12 3.61874e+12 3.60025e+12 3.60025e+12 3.5818e+12 3.5818e+12 3.56339e+12 3.56339e+12 3.54502e+12 3.54502e+12 3.5267e+12 3.5267e+12 3.50843e+12 3.50843e+12 3.4902e+12 3.4902e+12 3.47202e+12 3.47202e+12 3.45389e+12 3.45389e+12 3.43581e+12 3.43581e+12 3.41778e+12 3.41778e+12 3.39981e+12 3.39981e+12 3.38189e+12 3.38189e+12 3.36402e+12 3.36402e+12 3.34622e+12 3.34622e+12 3.32846e+12 3.32846e+12 3.31077e+12 3.31077e+12 3.29314e+12 3.29314e+12 3.27557e+12 3.27557e+12 3.25805e+12 3.25805e+12 3.2406e+12 3.2406e+12 3.22321e+12 3.22321e+12 3.20589e+12 3.20589e+12 3.18863e+12 3.18863e+12 3.17143e+12 3.17143e+12 3.1543e+12 3.1543e+12 3.13724e+12 3.13724e+12 3.12024e+12 3.12024e+12 3.10331e+12 3.10331e+12 3.08644e+12 3.08644e+12 3.06965e+12 3.06965e+12 3.05292e+12 3.05292e+12 3.03626e+12 3.03626e+12 3.01967e+12 3.01967e+12 3.00315e+12 3.00315e+12 2.98671e+12 2.98671e+12 2.97033e+12 2.97033e+12 2.95402e+12 2.95402e+12 2.93779e+12 2.93779e+12 2.92162e+12 2.92162e+12 2.90553e+12 2.90553e+12 2.88952e+12 2.88952e+12 2.87357e+12 2.87357e+12 2.8577e+12 2.8577e+12 2.84189e+12 2.84189e+12 2.82617e+12 2.82617e+12 2.81051e+12 2.81051e+12 2.79493e+12 2.79493e+12 2.77943e+12 2.77943e+12 2.76399e+12 2.76399e+12 2.74864e+12 2.74864e+12 2.73335e+12 2.73335e+12 2.71814e+12 2.71814e+12 2.703e+12 2.703e+12 2.68794e+12 2.68794e+12 2.67296e+12 2.67296e+12 2.65804e+12 2.65804e+12 2.6432e+12 2.6432e+12 2.62844e+12 2.62844e+12 2.61375e+12 2.61375e+12 2.59913e+12 2.59913e+12 2.58459e+12 2.58459e+12 2.57013e+12 2.57013e+12 2.55573e+12 2.55573e+12 2.54142e+12 2.54142e+12 2.52717e+12 2.52717e+12 2.513e+12 2.513e+12 2.49891e+12 2.49891e+12 2.48488e+12 2.48488e+12 2.47094e+12 2.47094e+12 2.45706e+12 2.45706e+12 2.44326e+12 2.44326e+12 2.42953e+12 2.42953e+12 2.41588e+12 2.41588e+12 2.4023e+12 2.4023e+12 2.38879e+12 2.38879e+12 2.37536e+12 2.37536e+12 2.362e+12 2.362e+12 2.34871e+12 2.34871e+12 2.33549e+12 2.33549e+12 2.32235e+12 2.32235e+12 2.30927e+12 2.30927e+12 2.29627e+12 2.29627e+12 2.28334e+12 2.28334e+12 2.27049e+12 2.27049e+12 2.2577e+12 2.2577e+12 2.24498e+12 2.24498e+12 2.23234e+12 2.23234e+12 2.21977e+12 2.21977e+12 2.20726e+12 2.20726e+12 2.19483e+12 2.19483e+12 2.18246e+12 2.18246e+12 2.17017e+12 2.17017e+12 2.15795e+12 2.15795e+12 2.14579e+12 2.14579e+12 2.1337e+12 2.1337e+12 2.12168e+12 2.12168e+12 2.10973e+12 2.10973e+12 2.09785e+12 2.09785e+12 2.08604e+12 2.08604e+12 2.07429e+12 2.07429e+12 2.06261e+12 2.06261e+12 2.051e+12 2.051e+12 2.03946e+12 2.03946e+12 2.02798e+12 2.02798e+12 2.01656e+12 2.01656e+12 2.00522e+12 2.00522e+12 1.99394e+12 1.99394e+12 1.98272e+12 1.98272e+12 1.97157e+12 1.97157e+12 1.96048e+12 1.96048e+12 1.94946e+12 1.94946e+12 1.93851e+12 1.93851e+12 1.92761e+12 1.92761e+12 1.91678e+12 1.91678e+12 1.90601e+12 1.90601e+12 1.89531e+12 1.89531e+12 1.88467e+12 1.88467e+12 1.87409e+12 1.87409e+12 1.86357e+12 1.86357e+12 1.85312e+12 1.85312e+12 1.84273e+12 1.84273e+12 1.83239e+12 1.83239e+12 1.82212e+12 1.82212e+12 1.81191e+12 1.81191e+12 1.80176e+12 1.80176e+12 1.79167e+12 1.79167e+12 1.78164e+12 1.78164e+12 1.77167e+12 1.77167e+12 1.76176e+12 1.76176e+12 1.7519e+12 1.7519e+12 1.74211e+12 1.74211e+12 1.73237e+12 1.73237e+12 1.72269e+12 1.72269e+12 1.71307e+12 1.71307e+12 1.7035e+12 1.7035e+12 1.69399e+12 1.69399e+12 1.68454e+12 1.68454e+12 1.67514e+12 1.67514e+12 1.6658e+12 1.6658e+12 1.65652e+12 1.65652e+12 1.64729e+12 1.64729e+12 1.63812e+12 1.63812e+12 1.629e+12 1.629e+12 1.61993e+12 1.61993e+12 1.61092e+12 1.61092e+12 1.60197e+12 1.60197e+12 1.59306e+12 1.59306e+12 1.58421e+12 1.58421e+12 1.57542e+12 1.57542e+12 1.56667e+12 1.56667e+12 1.55798e+12 1.55798e+12 1.54934e+12 1.54934e+12 1.54075e+12 1.54075e+12 1.53221e+12 1.53221e+12 1.52373e+12 1.52373e+12 1.51529e+12 1.51529e+12 1.50691e+12 1.50691e+12 1.49857e+12 1.49857e+12 1.49028e+12 1.49028e+12 1.48205e+12 1.48205e+12 1.47386e+12 1.47386e+12 1.46573e+12 1.46573e+12 1.45764e+12 1.45764e+12 1.4496e+12 1.4496e+12 1.4416e+12 1.4416e+12 1.43366e+12 1.43366e+12 1.42576e+12 1.42576e+12 1.41791e+12 1.41791e+12 1.41011e+12 1.41011e+12 1.40235e+12 1.40235e+12 1.39465e+12 1.39465e+12 1.38698e+12 1.38698e+12 1.37936e+12 1.37936e+12 1.37179e+12 1.37179e+12 1.36426e+12 1.36426e+12 1.35678e+12 1.35678e+12 1.34935e+12 1.34935e+12 1.34195e+12 1.34195e+12 1.3346e+12 1.3346e+12 1.3273e+12 1.3273e+12 1.32004e+12 1.32004e+12 1.31282e+12 1.31282e+12 1.30565e+12 1.30565e+12 1.29851e+12 1.29851e+12 1.29142e+12 1.29142e+12 1.28438e+12 1.28438e+12 1.27737e+12 1.27737e+12 1.27041e+12 1.27041e+12 1.26349e+12 1.26349e+12 1.25661e+12 1.25661e+12 1.24977e+12 1.24977e+12 1.24297e+12 1.24297e+12 1.23621e+12 1.23621e+12 1.22949e+12 1.22949e+12 1.22281e+12 1.22281e+12 1.21617e+12 1.21617e+12 1.20957e+12 1.20957e+12 1.20301e+12 1.20301e+12 1.19649e+12 1.19649e+12 1.19001e+12 1.19001e+12 1.18356e+12 1.18356e+12 1.17716e+12 1.17716e+12 1.17079e+12 1.17079e+12 1.16446e+12 1.16446e+12 1.15817e+12 1.15817e+12 1.15191e+12 1.15191e+12 1.14569e+12 1.14569e+12 1.13951e+12 1.13951e+12 1.13336e+12 1.13336e+12 1.12725e+12 1.12725e+12 1.12118e+12 1.12118e+12 1.11514e+12 1.11514e+12 1.10914e+12 1.10914e+12 1.10317e+12 1.10317e+12 1.09724e+12 1.09724e+12 1.09134e+12 1.09134e+12 1.08548e+12 1.08548e+12 1.07966e+12 1.07966e+12 1.07386e+12 1.07386e+12 1.0681e+12 1.0681e+12 1.06238e+12 1.06238e+12 1.05668e+12 1.05668e+12 1.05102e+12 1.05102e+12 1.0454e+12 1.0454e+12 1.03981e+12 1.03981e+12 1.03425e+12 1.03425e+12 1.02872e+12 1.02872e+12 1.02322e+12 1.02322e+12 1.01776e+12 1.01776e+12 1.01233e+12 1.01233e+12 1.00693e+12 1.00693e+12 1.00156e+12 1.00156e+12 9.96221e+11 9.96221e+11 9.90914e+11 9.90914e+11 9.85639e+11 9.85639e+11 9.80394e+11 9.80394e+11 9.75179e+11 9.75179e+11 9.69994e+11 9.69994e+11 9.6484e+11 9.6484e+11 9.59715e+11 9.59715e+11 9.5462e+11 9.5462e+11 9.49555e+11 9.49555e+11 9.44518e+11 9.44518e+11 9.39511e+11 9.39511e+11 9.34532e+11 9.34532e+11 9.29582e+11 9.29582e+11 9.24661e+11 9.24661e+11 9.19768e+11 9.19768e+11 9.14903e+11 9.14903e+11 9.10066e+11 9.10066e+11 9.05256e+11 9.05256e+11 9.00475e+11 9.00475e+11 8.9572e+11 8.9572e+11 8.90993e+11 8.90993e+11 8.86293e+11 8.86293e+11 8.81619e+11 8.81619e+11 8.76972e+11 8.76972e+11 8.72352e+11 8.72352e+11 8.67758e+11 8.67758e+11 8.6319e+11 8.6319e+11 8.58648e+11 8.58648e+11 8.54132e+11 8.54132e+11 8.49642e+11 8.49642e+11 8.45177e+11 8.45177e+11 8.40737e+11 8.40737e+11 8.36322e+11 8.36322e+11 8.31933e+11 8.31933e+11 8.27568e+11 8.27568e+11 8.23228e+11 8.23228e+11 8.18912e+11 8.18912e+11 8.1462e+11 8.1462e+11 8.10353e+11 8.10353e+11 8.0611e+11 8.0611e+11 8.0189e+11 8.0189e+11 7.97695e+11 7.97695e+11 7.93522e+11 7.93522e+11 7.89374e+11 7.89374e+11 7.85248e+11 7.85248e+11 7.81145e+11 7.81145e+11 7.77066e+11 7.77066e+11 7.73009e+11 7.73009e+11 7.68974e+11 7.68974e+11 7.64963e+11 7.64963e+11 7.60973e+11 7.60973e+11 7.57006e+11 7.57006e+11 7.53061e+11 7.53061e+11 7.49137e+11 7.49137e+11 7.45236e+11 7.45236e+11 7.41355e+11 7.41355e+11 7.37497e+11 7.37497e+11 7.3366e+11 7.3366e+11 7.29844e+11 7.29844e+11 7.26049e+11 7.26049e+11 7.22275e+11 7.22275e+11 7.18521e+11 7.18521e+11 7.14789e+11 7.14789e+11 7.11076e+11 7.11076e+11 7.07385e+11 7.07385e+11 7.03713e+11 7.03713e+11 7.00062e+11 7.00062e+11 6.9643e+11 6.9643e+11 6.92818e+11 6.92818e+11 6.89227e+11 6.89227e+11 6.85654e+11 6.85654e+11 6.82101e+11 6.82101e+11 6.78568e+11 6.78568e+11 6.75054e+11 6.75054e+11 6.71558e+11 6.71558e+11 6.68082e+11 6.68082e+11 6.64625e+11 6.64625e+11 6.61186e+11 6.61186e+11 6.57766e+11 6.57766e+11 6.54364e+11 6.54364e+11 6.50981e+11 6.50981e+11 6.47616e+11 6.47616e+11 6.44269e+11 6.44269e+11 6.40941e+11 6.40941e+11 6.3763e+11 6.3763e+11 6.34336e+11 6.34336e+11 6.31061e+11 6.31061e+11 6.27803e+11 6.27803e+11 6.24562e+11 6.24562e+11 6.21339e+11 6.21339e+11 6.18133e+11 6.18133e+11 6.14944e+11 6.14944e+11 6.11773e+11 6.11773e+11 6.08618e+11 6.08618e+11 6.05479e+11 6.05479e+11 6.02358e+11 6.02358e+11 5.99253e+11 5.99253e+11 5.96164e+11 5.96164e+11 5.93092e+11 5.93092e+11 5.90036e+11 5.90036e+11 5.86997e+11 5.86997e+11 5.83973e+11 5.83973e+11 5.80965e+11 5.80965e+11 5.77973e+11 5.77973e+11 5.74997e+11 5.74997e+11 5.72036e+11 5.72036e+11 5.69091e+11 5.69091e+11 5.66162e+11 5.66162e+11 5.63248e+11 5.63248e+11 5.60349e+11 5.60349e+11 5.57465e+11 5.57465e+11 5.54596e+11 5.54596e+11 5.51742e+11 5.51742e+11 5.48903e+11 5.48903e+11 5.46079e+11 5.46079e+11 5.4327e+11 5.4327e+11 5.40475e+11 5.40475e+11 5.37694e+11 5.37694e+11 5.34928e+11 5.34928e+11 5.32177e+11 5.32177e+11 5.29439e+11 5.29439e+11 5.26716e+11 5.26716e+11 5.24007e+11 5.24007e+11 5.21311e+11 5.21311e+11 5.1863e+11 5.1863e+11 5.15962e+11 5.15962e+11 5.13308e+11 5.13308e+11 5.10668e+11 5.10668e+11 5.08041e+11 5.08041e+11 5.05428e+11 5.05428e+11 5.02828e+11 5.02828e+11 5.00241e+11 5.00241e+11 4.97667e+11 4.97667e+11 4.95107e+11 4.95107e+11 4.92559e+11 4.92559e+11 4.90025e+11 4.90025e+11 4.87503e+11 4.87503e+11 4.84995e+11 4.84995e+11 4.82498e+11 4.82498e+11 4.80015e+11 4.80015e+11 4.77544e+11 4.77544e+11 4.75086e+11 4.75086e+11 4.72639e+11 4.72639e+11 4.70206e+11 4.70206e+11 4.67784e+11 4.67784e+11 4.65375e+11 4.65375e+11 4.62978e+11 4.62978e+11 4.60592e+11 4.60592e+11 4.58219e+11 4.58219e+11 4.55858e+11 4.55858e+11 4.53508e+11 4.53508e+11 4.5117e+11 4.5117e+11 4.48844e+11 4.48844e+11 4.46529e+11 4.46529e+11 4.44226e+11 4.44226e+11 4.41935e+11 4.41935e+11 4.39654e+11 4.39654e+11 4.37385e+11 4.37385e+11 4.35128e+11 4.35128e+11 4.32881e+11 4.32881e+11 4.30646e+11 4.30646e+11 4.28421e+11 4.28421e+11 4.26208e+11 4.26208e+11 4.24005e+11 4.24005e+11 4.21813e+11 4.21813e+11 4.19632e+11 4.19632e+11 4.17462e+11 4.17462e+11 4.15302e+11 4.15302e+11 4.13153e+11 4.13153e+11 4.11015e+11 4.11015e+11 4.08887e+11 4.08887e+11 4.06769e+11 4.06769e+11 4.04662e+11 4.04662e+11 4.02565e+11 4.02565e+11 4.00478e+11 4.00478e+11 3.98401e+11 3.98401e+11 3.96334e+11 3.96334e+11 3.94277e+11 3.94277e+11 3.92231e+11 3.92231e+11 3.90194e+11 3.90194e+11 3.88167e+11 3.88167e+11 3.86149e+11 3.86149e+11 3.84142e+11 3.84142e+11 3.82144e+11 3.82144e+11 3.80156e+11 3.80156e+11 3.78177e+11 3.78177e+11 3.76208e+11 3.76208e+11 3.74248e+11 3.74248e+11 3.72298e+11 3.72298e+11 3.70357e+11 3.70357e+11 3.68425e+11 3.68425e+11 3.66502e+11 3.66502e+11 3.64589e+11 3.64589e+11 3.62685e+11 3.62685e+11 3.60789e+11 3.60789e+11 3.58903e+11 3.58903e+11 3.57026e+11 3.57026e+11 3.55157e+11 3.55157e+11 3.53298e+11 3.53298e+11 3.51447e+11 3.51447e+11 3.49605e+11 3.49605e+11 3.47772e+11 3.47772e+11 3.45947e+11 3.45947e+11 3.44131e+11 3.44131e+11 3.42323e+11 3.42323e+11 3.40524e+11 3.40524e+11 3.38733e+11 3.38733e+11 3.36951e+11 3.36951e+11 3.35177e+11 3.35177e+11 3.33412e+11 3.33412e+11 3.31654e+11 3.31654e+11 3.29905e+11 3.29905e+11 3.28164e+11 3.28164e+11 3.26431e+11 3.26431e+11 3.24706e+11 3.24706e+11 3.22989e+11 3.22989e+11 3.2128e+11 3.2128e+11 3.19579e+11 3.19579e+11 3.17886e+11 3.17886e+11 3.16201e+11 3.16201e+11 3.14523e+11 3.14523e+11 3.12853e+11 3.12853e+11 3.11191e+11 3.11191e+11 3.09537e+11 3.09537e+11 3.0789e+11 3.0789e+11 3.06251e+11 3.06251e+11 3.04619e+11 3.04619e+11 3.02995e+11 3.02995e+11 3.01378e+11 3.01378e+11 2.99768e+11 2.99768e+11 2.98166e+11 2.98166e+11 2.96571e+11 2.96571e+11 2.94984e+11 2.94984e+11 2.93404e+11 2.93404e+11 2.9183e+11 2.9183e+11 2.90265e+11 2.90265e+11 2.88706e+11 2.88706e+11 2.87154e+11 2.87154e+11 2.85609e+11 2.85609e+11 2.84071e+11 2.84071e+11 2.8254e+11 2.8254e+11 2.81016e+11 2.81016e+11 2.79499e+11 2.79499e+11 2.77989e+11 2.77989e+11 2.76486e+11 2.76486e+11 2.74989e+11 2.74989e+11 2.73499e+11 2.73499e+11 2.72016e+11 2.72016e+11 2.70539e+11 2.70539e+11 2.69069e+11 2.69069e+11 2.67605e+11 2.67605e+11 2.66148e+11 2.66148e+11 2.64698e+11 2.64698e+11 2.63254e+11 2.63254e+11 2.61816e+11 2.61816e+11 2.60385e+11 2.60385e+11 2.5896e+11 2.5896e+11 2.57542e+11 2.57542e+11 2.56129e+11 2.56129e+11 2.54723e+11 2.54723e+11 2.53324e+11 2.53324e+11 2.5193e+11 2.5193e+11 2.50542e+11 2.50542e+11 2.49161e+11 2.49161e+11 2.47786e+11 2.47786e+11 2.46417e+11 2.46417e+11 2.45053e+11 2.45053e+11 2.43696e+11 2.43696e+11 2.42345e+11 2.42345e+11 2.40999e+11 2.40999e+11 2.3966e+11 2.3966e+11 2.38326e+11 2.38326e+11 2.36998e+11 2.36998e+11 2.35676e+11 2.35676e+11 2.3436e+11 2.3436e+11 2.3305e+11 2.3305e+11 2.31745e+11 2.31745e+11 2.30445e+11 2.30445e+11 2.29152e+11 2.29152e+11 2.27864e+11 2.27864e+11 2.26582e+11 2.26582e+11 2.25305e+11 2.25305e+11 2.24033e+11 2.24033e+11 2.22767e+11 2.22767e+11 2.21507e+11 2.21507e+11 2.20252e+11 2.20252e+11 2.19003e+11 2.19003e+11 2.17758e+11 2.17758e+11 2.16519e+11 2.16519e+11 2.15286e+11 2.15286e+11 2.14058e+11 2.14058e+11 2.12835e+11 2.12835e+11 2.11617e+11 2.11617e+11 2.10404e+11 2.10404e+11 2.09197e+11 2.09197e+11 2.07994e+11 2.07994e+11 2.06797e+11 2.06797e+11 2.05605e+11 2.05605e+11 2.04418e+11 2.04418e+11 2.03236e+11 2.03236e+11 2.02059e+11 2.02059e+11 2.00887e+11 2.00887e+11 1.9972e+11 1.9972e+11 1.98558e+11 1.98558e+11 1.97401e+11 1.97401e+11 1.96248e+11 1.96248e+11 1.95101e+11 1.95101e+11 1.93958e+11 1.93958e+11 1.9282e+11 1.9282e+11 1.91687e+11 1.91687e+11 1.90559e+11 1.90559e+11 1.89435e+11 1.89435e+11 1.88316e+11 1.88316e+11 1.87202e+11 1.87202e+11 1.86093e+11 1.86093e+11 1.84988e+11 1.84988e+11 1.83887e+11 1.83887e+11 1.82792e+11 1.82792e+11 1.81701e+11 1.81701e+11 1.80614e+11 1.80614e+11 1.79532e+11 1.79532e+11 1.78454e+11 1.78454e+11 1.77381e+11 1.77381e+11 1.76312e+11 1.76312e+11 1.75248e+11 1.75248e+11 1.74188e+11 1.74188e+11 1.73133e+11 1.73133e+11 1.72081e+11 1.72081e+11 1.71034e+11 1.71034e+11 1.69992e+11 1.69992e+11 1.68954e+11 1.68954e+11 1.6792e+11 1.6792e+11 1.6689e+11 1.6689e+11 1.65864e+11 1.65864e+11 1.64843e+11 1.64843e+11 1.63826e+11 1.63826e+11 1.62813e+11 1.62813e+11 1.61804e+11 1.61804e+11 1.60799e+11 1.60799e+11 1.59799e+11 1.59799e+11 1.58802e+11 1.58802e+11 1.5781e+11 1.5781e+11 1.56821e+11 1.56821e+11 1.55837e+11 1.55837e+11 1.54856e+11 1.54856e+11 1.5388e+11 1.5388e+11 1.52907e+11 1.52907e+11 1.51939e+11 1.51939e+11 1.50974e+11 1.50974e+11 1.50013e+11 1.50013e+11 1.49056e+11 1.49056e+11 1.48103e+11 1.48103e+11 1.47154e+11 1.47154e+11 1.46209e+11 1.46209e+11 1.45267e+11 1.45267e+11 1.44329e+11 1.44329e+11 1.43395e+11 1.43395e+11 1.42465e+11 1.42465e+11 1.41538e+11 1.41538e+11 1.40615e+11 1.40615e+11 1.39696e+11 1.39696e+11 1.3878e+11 1.3878e+11 1.37869e+11 1.37869e+11 1.3696e+11 1.3696e+11 1.36056e+11 1.36056e+11 1.35155e+11 1.35155e+11 1.34257e+11 1.34257e+11 1.33363e+11 1.33363e+11 1.32473e+11 1.32473e+11 1.31586e+11 1.31586e+11 1.30703e+11 1.30703e+11 1.29823e+11 1.29823e+11 1.28947e+11 1.28947e+11 1.28074e+11 1.28074e+11 1.27204e+11 1.27204e+11 1.26338e+11 1.26338e+11 1.25476e+11 1.25476e+11 1.24616e+11 1.24616e+11 1.23761e+11 1.23761e+11 1.22908e+11 1.22908e+11 1.22059e+11 1.22059e+11 1.21213e+11 1.21213e+11 1.20371e+11 1.20371e+11 1.19531e+11 1.19531e+11 1.18696e+11 1.18696e+11 1.17863e+11 1.17863e+11 1.17033e+11 1.17033e+11 1.16207e+11 1.16207e+11 1.15384e+11 1.15384e+11 1.14565e+11 1.14565e+11 1.13748e+11 1.13748e+11 1.12935e+11 1.12935e+11 1.12124e+11 1.12124e+11 1.11317e+11 1.11317e+11 1.10513e+11 1.10513e+11 1.09712e+11 1.09712e+11 1.08915e+11 1.08915e+11 1.0812e+11 1.0812e+11 1.07328e+11 1.07328e+11 1.0654e+11 1.0654e+11 1.05754e+11 1.05754e+11 1.04972e+11 1.04972e+11 1.04192e+11 1.04192e+11 1.03416e+11 1.03416e+11 1.02642e+11 1.02642e+11 1.01872e+11 1.01872e+11 1.01104e+11 1.01104e+11 1.0034e+11 1.0034e+11 9.9578e+10 9.9578e+10 9.88192e+10 9.88192e+10 9.80633e+10 9.80633e+10 9.73103e+10 9.73103e+10 9.65601e+10 9.65601e+10 9.58129e+10 9.58129e+10 9.50684e+10 9.50684e+10 9.43268e+10 9.43268e+10 9.3588e+10 9.3588e+10 9.28521e+10 9.28521e+10 9.21189e+10 9.21189e+10 9.13885e+10 9.13885e+10 9.06608e+10 9.06608e+10 8.9936e+10 8.9936e+10 8.92138e+10 8.92138e+10 8.84944e+10 8.84944e+10 8.77777e+10 8.77777e+10 8.70637e+10 8.70637e+10 8.63524e+10 8.63524e+10 8.56438e+10 8.56438e+10 8.49379e+10 8.49379e+10 8.42346e+10 8.42346e+10 8.35339e+10 8.35339e+10 8.28359e+10 8.28359e+10 8.21405e+10 8.21405e+10 8.14477e+10 8.14477e+10 8.07575e+10 8.07575e+10 8.00698e+10 8.00698e+10 7.93848e+10 7.93848e+10 7.87023e+10 7.87023e+10 7.80224e+10 7.80224e+10 7.7345e+10 7.7345e+10 7.66701e+10 7.66701e+10 7.59977e+10 7.59977e+10 7.53278e+10 7.53278e+10 7.46605e+10 7.46605e+10 7.39956e+10 7.39956e+10 7.33331e+10 7.33331e+10 7.26732e+10 7.26732e+10 7.20157e+10 7.20157e+10 7.13606e+10 7.13606e+10 7.07079e+10 7.07079e+10 7.00576e+10 7.00576e+10 6.94098e+10 6.94098e+10 6.87643e+10 6.87643e+10 6.81213e+10 6.81213e+10 6.74806e+10 6.74806e+10 6.68422e+10 6.68422e+10 6.62062e+10 6.62062e+10 6.55726e+10 6.55726e+10 6.49412e+10 6.49412e+10 6.43122e+10 6.43122e+10 6.36855e+10 6.36855e+10 6.30611e+10 6.30611e+10 6.2439e+10 6.2439e+10 6.18192e+10 6.18192e+10 6.12016e+10 6.12016e+10 6.05863e+10 6.05863e+10 5.99732e+10 5.99732e+10 5.93624e+10 5.93624e+10 5.87538e+10 5.87538e+10 5.81474e+10 5.81474e+10 5.75432e+10 5.75432e+10 5.69412e+10 5.69412e+10 5.63414e+10 5.63414e+10 5.57438e+10 5.57438e+10 5.51484e+10 5.51484e+10 5.45551e+10 5.45551e+10 5.3964e+10 5.3964e+10 5.3375e+10 5.3375e+10 5.27881e+10 5.27881e+10 5.22034e+10 5.22034e+10 5.16208e+10 5.16208e+10 5.10402e+10 5.10402e+10 5.04618e+10 5.04618e+10 4.98855e+10 4.98855e+10 4.93112e+10 4.93112e+10 4.8739e+10 4.8739e+10 4.81689e+10 4.81689e+10 4.76008e+10 4.76008e+10 4.70348e+10 4.70348e+10 4.64707e+10 4.64707e+10 4.59088e+10 4.59088e+10 4.53488e+10 4.53488e+10 4.47908e+10 4.47908e+10 4.42349e+10 4.42349e+10 4.36809e+10 4.36809e+10 4.31289e+10 4.31289e+10 4.25788e+10 4.25788e+10 4.20308e+10 4.20308e+10 4.14847e+10 4.14847e+10 4.09405e+10 4.09405e+10 4.03983e+10 4.03983e+10 3.9858e+10 3.9858e+10 3.93196e+10 3.93196e+10 3.87832e+10 3.87832e+10 3.82486e+10 3.82486e+10 3.7716e+10 3.7716e+10 3.71852e+10 3.71852e+10 3.66563e+10 3.66563e+10 3