# vtk DataFile Version 3.0
#This file was generated by the deal.II library on 2020/9/6 at 2:48:57
ASCII
DATASET UNSTRUCTURED_GRID

POINTS 4096 double
1.5 0 0
1.59692 0 0
1.59692 0 0
1.69385 0 0
1.69385 0 0
1.79077 0 0
1.79077 0 0
1.8877 0 0
1.8877 0 0
1.98462 0 0
1.98462 0 0
2.08154 0 0
2.08154 0 0
2.17847 0 0
2.17847 0 0
2.27539 0 0
2.27539 0 0
2.37231 0 0
2.37231 0 0
2.46924 0 0
2.46924 0 0
2.56616 0 0
2.56616 0 0
2.66309 0 0
2.66309 0 0
2.76001 0 0
2.76001 0 0
2.85693 0 0
2.85693 0 0
2.95386 0 0
2.95386 0 0
3.05078 0 0
3.05078 0 0
3.14771 0 0
3.14771 0 0
3.24463 0 0
3.24463 0 0
3.34155 0 0
3.34155 0 0
3.43848 0 0
3.43848 0 0
3.5354 0 0
3.5354 0 0
3.63232 0 0
3.63232 0 0
3.72925 0 0
3.72925 0 0
3.82617 0 0
3.82617 0 0
3.9231 0 0
3.9231 0 0
4.02002 0 0
4.02002 0 0
4.11694 0 0
4.11694 0 0
4.21387 0 0
4.21387 0 0
4.31079 0 0
4.31079 0 0
4.40771 0 0
4.40771 0 0
4.50464 0 0
4.50464 0 0
4.60156 0 0
4.60156 0 0
4.69849 0 0
4.69849 0 0
4.79541 0 0
4.79541 0 0
4.89233 0 0
4.89233 0 0
4.98926 0 0
4.98926 0 0
5.08618 0 0
5.08618 0 0
5.18311 0 0
5.18311 0 0
5.28003 0 0
5.28003 0 0
5.37695 0 0
5.37695 0 0
5.47388 0 0
5.47388 0 0
5.5708 0 0
5.5708 0 0
5.66772 0 0
5.66772 0 0
5.76465 0 0
5.76465 0 0
5.86157 0 0
5.86157 0 0
5.9585 0 0
5.9585 0 0
6.05542 0 0
6.05542 0 0
6.15234 0 0
6.15234 0 0
6.24927 0 0
6.24927 0 0
6.34619 0 0
6.34619 0 0
6.44312 0 0
6.44312 0 0
6.54004 0 0
6.54004 0 0
6.63696 0 0
6.63696 0 0
6.73389 0 0
6.73389 0 0
6.83081 0 0
6.83081 0 0
6.92773 0 0
6.92773 0 0
7.02466 0 0
7.02466 0 0
7.12158 0 0
7.12158 0 0
7.21851 0 0
7.21851 0 0
7.31543 0 0
7.31543 0 0
7.41235 0 0
7.41235 0 0
7.50928 0 0
7.50928 0 0
7.6062 0 0
7.6062 0 0
7.70312 0 0
7.70312 0 0
7.80005 0 0
7.80005 0 0
7.89697 0 0
7.89697 0 0
7.9939 0 0
7.9939 0 0
8.09082 0 0
8.09082 0 0
8.18774 0 0
8.18774 0 0
8.28467 0 0
8.28467 0 0
8.38159 0 0
8.38159 0 0
8.47852 0 0
8.47852 0 0
8.57544 0 0
8.57544 0 0
8.67236 0 0
8.67236 0 0
8.76929 0 0
8.76929 0 0
8.86621 0 0
8.86621 0 0
8.96313 0 0
8.96313 0 0
9.06006 0 0
9.06006 0 0
9.15698 0 0
9.15698 0 0
9.25391 0 0
9.25391 0 0
9.35083 0 0
9.35083 0 0
9.44775 0 0
9.44775 0 0
9.54468 0 0
9.54468 0 0
9.6416 0 0
9.6416 0 0
9.73853 0 0
9.73853 0 0
9.83545 0 0
9.83545 0 0
9.93237 0 0
9.93237 0 0
10.0293 0 0
10.0293 0 0
10.1262 0 0
10.1262 0 0
10.2231 0 0
10.2231 0 0
10.3201 0 0
10.3201 0 0
10.417 0 0
10.417 0 0
10.5139 0 0
10.5139 0 0
10.6108 0 0
10.6108 0 0
10.7078 0 0
10.7078 0 0
10.8047 0 0
10.8047 0 0
10.9016 0 0
10.9016 0 0
10.9985 0 0
10.9985 0 0
11.0955 0 0
11.0955 0 0
11.1924 0 0
11.1924 0 0
11.2893 0 0
11.2893 0 0
11.3862 0 0
11.3862 0 0
11.4832 0 0
11.4832 0 0
11.5801 0 0
11.5801 0 0
11.677 0 0
11.677 0 0
11.7739 0 0
11.7739 0 0
11.8708 0 0
11.8708 0 0
11.9678 0 0
11.9678 0 0
12.0647 0 0
12.0647 0 0
12.1616 0 0
12.1616 0 0
12.2585 0 0
12.2585 0 0
12.3555 0 0
12.3555 0 0
12.4524 0 0
12.4524 0 0
12.5493 0 0
12.5493 0 0
12.6462 0 0
12.6462 0 0
12.7432 0 0
12.7432 0 0
12.8401 0 0
12.8401 0 0
12.937 0 0
12.937 0 0
13.0339 0 0
13.0339 0 0
13.1309 0 0
13.1309 0 0
13.2278 0 0
13.2278 0 0
13.3247 0 0
13.3247 0 0
13.4216 0 0
13.4216 0 0
13.5186 0 0
13.5186 0 0
13.6155 0 0
13.6155 0 0
13.7124 0 0
13.7124 0 0
13.8093 0 0
13.8093 0 0
13.9062 0 0
13.9062 0 0
14.0032 0 0
14.0032 0 0
14.1001 0 0
14.1001 0 0
14.197 0 0
14.197 0 0
14.2939 0 0
14.2939 0 0
14.3909 0 0
14.3909 0 0
14.4878 0 0
14.4878 0 0
14.5847 0 0
14.5847 0 0
14.6816 0 0
14.6816 0 0
14.7786 0 0
14.7786 0 0
14.8755 0 0
14.8755 0 0
14.9724 0 0
14.9724 0 0
15.0693 0 0
15.0693 0 0
15.1663 0 0
15.1663 0 0
15.2632 0 0
15.2632 0 0
15.3601 0 0
15.3601 0 0
15.457 0 0
15.457 0 0
15.554 0 0
15.554 0 0
15.6509 0 0
15.6509 0 0
15.7478 0 0
15.7478 0 0
15.8447 0 0
15.8447 0 0
15.9417 0 0
15.9417 0 0
16.0386 0 0
16.0386 0 0
16.1355 0 0
16.1355 0 0
16.2324 0 0
16.2324 0 0
16.3293 0 0
16.3293 0 0
16.4263 0 0
16.4263 0 0
16.5232 0 0
16.5232 0 0
16.6201 0 0
16.6201 0 0
16.717 0 0
16.717 0 0
16.814 0 0
16.814 0 0
16.9109 0 0
16.9109 0 0
17.0078 0 0
17.0078 0 0
17.1047 0 0
17.1047 0 0
17.2017 0 0
17.2017 0 0
17.2986 0 0
17.2986 0 0
17.3955 0 0
17.3955 0 0
17.4924 0 0
17.4924 0 0
17.5894 0 0
17.5894 0 0
17.6863 0 0
17.6863 0 0
17.7832 0 0
17.7832 0 0
17.8801 0 0
17.8801 0 0
17.9771 0 0
17.9771 0 0
18.074 0 0
18.074 0 0
18.1709 0 0
18.1709 0 0
18.2678 0 0
18.2678 0 0
18.3647 0 0
18.3647 0 0
18.4617 0 0
18.4617 0 0
18.5586 0 0
18.5586 0 0
18.6555 0 0
18.6555 0 0
18.7524 0 0
18.7524 0 0
18.8494 0 0
18.8494 0 0
18.9463 0 0
18.9463 0 0
19.0432 0 0
19.0432 0 0
19.1401 0 0
19.1401 0 0
19.2371 0 0
19.2371 0 0
19.334 0 0
19.334 0 0
19.4309 0 0
19.4309 0 0
19.5278 0 0
19.5278 0 0
19.6248 0 0
19.6248 0 0
19.7217 0 0
19.7217 0 0
19.8186 0 0
19.8186 0 0
19.9155 0 0
19.9155 0 0
20.0125 0 0
20.0125 0 0
20.1094 0 0
20.1094 0 0
20.2063 0 0
20.2063 0 0
20.3032 0 0
20.3032 0 0
20.4001 0 0
20.4001 0 0
20.4971 0 0
20.4971 0 0
20.594 0 0
20.594 0 0
20.6909 0 0
20.6909 0 0
20.7878 0 0
20.7878 0 0
20.8848 0 0
20.8848 0 0
20.9817 0 0
20.9817 0 0
21.0786 0 0
21.0786 0 0
21.1755 0 0
21.1755 0 0
21.2725 0 0
21.2725 0 0
21.3694 0 0
21.3694 0 0
21.4663 0 0
21.4663 0 0
21.5632 0 0
21.5632 0 0
21.6602 0 0
21.6602 0 0
21.7571 0 0
21.7571 0 0
21.854 0 0
21.854 0 0
21.9509 0 0
21.9509 0 0
22.0479 0 0
22.0479 0 0
22.1448 0 0
22.1448 0 0
22.2417 0 0
22.2417 0 0
22.3386 0 0
22.3386 0 0
22.4355 0 0
22.4355 0 0
22.5325 0 0
22.5325 0 0
22.6294 0 0
22.6294 0 0
22.7263 0 0
22.7263 0 0
22.8232 0 0
22.8232 0 0
22.9202 0 0
22.9202 0 0
23.0171 0 0
23.0171 0 0
23.114 0 0
23.114 0 0
23.2109 0 0
23.2109 0 0
23.3079 0 0
23.3079 0 0
23.4048 0 0
23.4048 0 0
23.5017 0 0
23.5017 0 0
23.5986 0 0
23.5986 0 0
23.6956 0 0
23.6956 0 0
23.7925 0 0
23.7925 0 0
23.8894 0 0
23.8894 0 0
23.9863 0 0
23.9863 0 0
24.0833 0 0
24.0833 0 0
24.1802 0 0
24.1802 0 0
24.2771 0 0
24.2771 0 0
24.374 0 0
24.374 0 0
24.4709 0 0
24.4709 0 0
24.5679 0 0
24.5679 0 0
24.6648 0 0
24.6648 0 0
24.7617 0 0
24.7617 0 0
24.8586 0 0
24.8586 0 0
24.9556 0 0
24.9556 0 0
25.0525 0 0
25.0525 0 0
25.1494 0 0
25.1494 0 0
25.2463 0 0
25.2463 0 0
25.3433 0 0
25.3433 0 0
25.4402 0 0
25.4402 0 0
25.5371 0 0
25.5371 0 0
25.634 0 0
25.634 0 0
25.731 0 0
25.731 0 0
25.8279 0 0
25.8279 0 0
25.9248 0 0
25.9248 0 0
26.0217 0 0
26.0217 0 0
26.1187 0 0
26.1187 0 0
26.2156 0 0
26.2156 0 0
26.3125 0 0
26.3125 0 0
26.4094 0 0
26.4094 0 0
26.5063 0 0
26.5063 0 0
26.6033 0 0
26.6033 0 0
26.7002 0 0
26.7002 0 0
26.7971 0 0
26.7971 0 0
26.894 0 0
26.894 0 0
26.991 0 0
26.991 0 0
27.0879 0 0
27.0879 0 0
27.1848 0 0
27.1848 0 0
27.2817 0 0
27.2817 0 0
27.3787 0 0
27.3787 0 0
27.4756 0 0
27.4756 0 0
27.5725 0 0
27.5725 0 0
27.6694 0 0
27.6694 0 0
27.7664 0 0
27.7664 0 0
27.8633 0 0
27.8633 0 0
27.9602 0 0
27.9602 0 0
28.0571 0 0
28.0571 0 0
28.1541 0 0
28.1541 0 0
28.251 0 0
28.251 0 0
28.3479 0 0
28.3479 0 0
28.4448 0 0
28.4448 0 0
28.5417 0 0
28.5417 0 0
28.6387 0 0
28.6387 0 0
28.7356 0 0
28.7356 0 0
28.8325 0 0
28.8325 0 0
28.9294 0 0
28.9294 0 0
29.0264 0 0
29.0264 0 0
29.1233 0 0
29.1233 0 0
29.2202 0 0
29.2202 0 0
29.3171 0 0
29.3171 0 0
29.4141 0 0
29.4141 0 0
29.511 0 0
29.511 0 0
29.6079 0 0
29.6079 0 0
29.7048 0 0
29.7048 0 0
29.8018 0 0
29.8018 0 0
29.8987 0 0
29.8987 0 0
29.9956 0 0
29.9956 0 0
30.0925 0 0
30.0925 0 0
30.1895 0 0
30.1895 0 0
30.2864 0 0
30.2864 0 0
30.3833 0 0
30.3833 0 0
30.4802 0 0
30.4802 0 0
30.5771 0 0
30.5771 0 0
30.6741 0 0
30.6741 0 0
30.771 0 0
30.771 0 0
30.8679 0 0
30.8679 0 0
30.9648 0 0
30.9648 0 0
31.0618 0 0
31.0618 0 0
31.1587 0 0
31.1587 0 0
31.2556 0 0
31.2556 0 0
31.3525 0 0
31.3525 0 0
31.4495 0 0
31.4495 0 0
31.5464 0 0
31.5464 0 0
31.6433 0 0
31.6433 0 0
31.7402 0 0
31.7402 0 0
31.8372 0 0
31.8372 0 0
31.9341 0 0
31.9341 0 0
32.031 0 0
32.031 0 0
32.1279 0 0
32.1279 0 0
32.2249 0 0
32.2249 0 0
32.3218 0 0
32.3218 0 0
32.4187 0 0
32.4187 0 0
32.5156 0 0
32.5156 0 0
32.6125 0 0
32.6125 0 0
32.7095 0 0
32.7095 0 0
32.8064 0 0
32.8064 0 0
32.9033 0 0
32.9033 0 0
33.0002 0 0
33.0002 0 0
33.0972 0 0
33.0972 0 0
33.1941 0 0
33.1941 0 0
33.291 0 0
33.291 0 0
33.3879 0 0
33.3879 0 0
33.4849 0 0
33.4849 0 0
33.5818 0 0
33.5818 0 0
33.6787 0 0
33.6787 0 0
33.7756 0 0
33.7756 0 0
33.8726 0 0
33.8726 0 0
33.9695 0 0
33.9695 0 0
34.0664 0 0
34.0664 0 0
34.1633 0 0
34.1633 0 0
34.2603 0 0
34.2603 0 0
34.3572 0 0
34.3572 0 0
34.4541 0 0
34.4541 0 0
34.551 0 0
34.551 0 0
34.6479 0 0
34.6479 0 0
34.7449 0 0
34.7449 0 0
34.8418 0 0
34.8418 0 0
34.9387 0 0
34.9387 0 0
35.0356 0 0
35.0356 0 0
35.1326 0 0
35.1326 0 0
35.2295 0 0
35.2295 0 0
35.3264 0 0
35.3264 0 0
35.4233 0 0
35.4233 0 0
35.5203 0 0
35.5203 0 0
35.6172 0 0
35.6172 0 0
35.7141 0 0
35.7141 0 0
35.811 0 0
35.811 0 0
35.908 0 0
35.908 0 0
36.0049 0 0
36.0049 0 0
36.1018 0 0
36.1018 0 0
36.1987 0 0
36.1987 0 0
36.2957 0 0
36.2957 0 0
36.3926 0 0
36.3926 0 0
36.4895 0 0
36.4895 0 0
36.5864 0 0
36.5864 0 0
36.6833 0 0
36.6833 0 0
36.7803 0 0
36.7803 0 0
36.8772 0 0
36.8772 0 0
36.9741 0 0
36.9741 0 0
37.071 0 0
37.071 0 0
37.168 0 0
37.168 0 0
37.2649 0 0
37.2649 0 0
37.3618 0 0
37.3618 0 0
37.4587 0 0
37.4587 0 0
37.5557 0 0
37.5557 0 0
37.6526 0 0
37.6526 0 0
37.7495 0 0
37.7495 0 0
37.8464 0 0
37.8464 0 0
37.9434 0 0
37.9434 0 0
38.0403 0 0
38.0403 0 0
38.1372 0 0
38.1372 0 0
38.2341 0 0
38.2341 0 0
38.3311 0 0
38.3311 0 0
38.428 0 0
38.428 0 0
38.5249 0 0
38.5249 0 0
38.6218 0 0
38.6218 0 0
38.7188 0 0
38.7188 0 0
38.8157 0 0
38.8157 0 0
38.9126 0 0
38.9126 0 0
39.0095 0 0
39.0095 0 0
39.1064 0 0
39.1064 0 0
39.2034 0 0
39.2034 0 0
39.3003 0 0
39.3003 0 0
39.3972 0 0
39.3972 0 0
39.4941 0 0
39.4941 0 0
39.5911 0 0
39.5911 0 0
39.688 0 0
39.688 0 0
39.7849 0 0
39.7849 0 0
39.8818 0 0
39.8818 0 0
39.9788 0 0
39.9788 0 0
40.0757 0 0
40.0757 0 0
40.1726 0 0
40.1726 0 0
40.2695 0 0
40.2695 0 0
40.3665 0 0
40.3665 0 0
40.4634 0 0
40.4634 0 0
40.5603 0 0
40.5603 0 0
40.6572 0 0
40.6572 0 0
40.7542 0 0
40.7542 0 0
40.8511 0 0
40.8511 0 0
40.948 0 0
40.948 0 0
41.0449 0 0
41.0449 0 0
41.1418 0 0
41.1418 0 0
41.2388 0 0
41.2388 0 0
41.3357 0 0
41.3357 0 0
41.4326 0 0
41.4326 0 0
41.5295 0 0
41.5295 0 0
[...]
POINT_DATA 4096
SCALARS solution_0 double 1
LOOKUP_TABLE default
90.6365 88.7448 88.7448 87.1454 87.1454 85.7792 85.7792 84.6011 84.6011 83.5758 83.5758 82.6758 82.6758 81.879 81.879 81.1678 81.1678 80.528 80.528 79.9479 79.9479 79.418 79.418 78.9303 78.9303 78.4782 78.4782 78.0563 78.0563 77.6599 77.6599 77.2852 77.2852 76.9288 76.9288 76.5879 76.5879 76.2602 76.2602 75.9435 75.9435 75.6362 75.6362 75.3366 75.3366 75.0436 75.0436 74.7561 74.7561 74.4729 74.4729 74.1934 74.1934 73.9169 73.9169 73.6426 73.6426 73.37 73.37 73.0988 73.0988 72.8285 72.8285 72.5587 72.5587 72.2892 72.2892 72.0198 72.0198 71.7502 71.7502 71.4802 71.4802 71.2097 71.2097 70.9386 70.9386 70.6668 70.6668 70.3942 70.3942 70.1207 70.1207 69.8462 69.8462 69.5708 69.5708 69.2945 69.2945 69.0171 69.0171 68.7387 68.7387 68.4593 68.4593 68.1788 68.1788 67.8974 67.8974 67.615 67.615 67.3317 67.3317 67.0474 67.0474 66.7623 66.7623 66.4762 66.4762 66.1894 66.1894 65.9018 65.9018 65.6134 65.6134 65.3242 65.3242 65.0345 65.0345 64.7441 64.7441 64.4531 64.4531 64.1615 64.1615 63.8695 63.8695 63.577 63.577 63.2841 63.2841 62.9908 62.9908 62.6972 62.6972 62.4033 62.4033 62.1091 62.1091 61.8148 61.8148 61.5203 61.5203 61.2257 61.2257 60.931 60.931 60.6363 60.6363 60.3415 60.3415 60.0469 60.0469 59.7523 59.7523 59.4578 59.4578 59.1635 59.1635 58.8693 58.8693 58.5754 58.5754 58.2818 58.2818 57.9884 57.9884 57.6954 57.6954 57.4027 57.4027 57.1104 57.1104 56.8186 56.8186 56.5272 56.5272 56.2362 56.2362 55.9458 55.9458 55.6559 55.6559 55.3665 55.3665 55.0778 55.0778 54.7896 54.7896 54.5021 54.5021 54.2153 54.2153 53.9291 53.9291 53.6436 53.6436 53.3588 53.3588 53.0748 53.0748 52.7916 52.7916 52.5091 52.5091 52.2275 52.2275 51.9466 51.9466 51.6666 51.6666 51.3875 51.3875 51.1092 51.1092 50.8318 50.8318 50.5554 50.5554 50.2798 50.2798 50.0052 50.0052 49.7315 49.7315 49.4588 49.4588 49.187 49.187 48.9162 48.9162 48.6464 48.6464 48.3777 48.3777 48.1099 48.1099 47.8432 47.8432 47.5774 47.5774 47.3128 47.3128 47.0492 47.0492 46.7866 46.7866 46.5252 46.5252 46.2648 46.2648 46.0054 46.0054 45.7472 45.7472 45.4901 45.4901 45.2341 45.2341 44.9792 44.9792 44.7254 44.7254 44.4727 44.4727 44.2212 44.2212 43.9707 43.9707 43.7215 43.7215 43.4733 43.4733 43.2264 43.2264 42.9805 42.9805 42.7359 42.7359 42.4924 42.4924 42.25 42.25 42.0089 42.0089 41.7689 41.7689 41.5301 41.5301 41.2925 41.2925 41.056 41.056 40.8208 40.8208 40.5868 40.5868 40.3539 40.3539 40.1223 40.1223 39.8919 39.8919 39.6626 39.6626 39.4346 39.4346 39.2077 39.2077 38.982 38.982 38.7575 38.7575 38.5342 38.5342 38.312 38.312 38.0909 38.0909 37.871 37.871 37.6522 37.6522 37.4345 37.4345 37.2179 37.2179 37.0023 37.0023 36.7877 36.7877 36.5742 36.5742 36.3617 36.3617 36.1502 36.1502 35.9396 35.9396 35.73 35.73 35.5213 35.5213 35.3135 35.3135 35.1066 35.1066 34.9007 34.9007 34.6956 34.6956 34.4914 34.4914 34.2882 34.2882 34.0858 34.0858 33.8843 33.8843 33.6838 33.6838 33.4842 33.4842 33.2855 33.2855 33.0877 33.0877 32.891 32.891 32.6952 32.6952 32.5004 32.5004 32.3067 32.3067 32.114 32.114 31.9223 31.9223 31.7316 31.7316 31.542 31.542 31.3534 31.3534 31.1657 31.1657 30.9789 30.9789 30.7928 30.7928 30.6074 30.6074 30.4223 30.4223 30.2374 30.2374 30.0522 30.0522 29.8664 29.8664 29.6794 29.6794 29.4907 29.4907 29.2997 29.2997 29.1056 29.1056 28.9077 28.9077 28.7056 28.7056 28.4985 28.4985 28.2861 28.2861 28.0684 28.0684 27.8453 27.8453 27.6176 27.6176 27.3859 27.3859 27.1517 27.1517 26.9165 26.9165 26.6824 26.6824 26.4513 26.4513 26.2256 26.2256 26.0074 26.0074 25.7986 25.7986 25.6008 25.6008 25.4152 25.4152 25.2424 25.2424 25.0828 25.0828 24.9362 24.9362 24.8022 24.8022 24.6803 24.6803 24.57 24.57 24.4709 24.4709 24.3828 24.3828 24.306 24.306 24.2407 24.2407 24.1877 24.1877 24.1476 24.1476 24.1212 24.1212 24.1091 24.1091 24.1117 24.1117 24.1292 24.1292 24.1615 24.1615 24.2081 24.2081 24.2684 24.2684 24.3411 24.3411 24.425 24.425 24.5184 24.5184 24.6193 24.6193 24.7255 24.7255 24.8344 24.8344 24.9432 24.9432 25.0491 25.0491 25.1488 25.1488 25.2392 25.2392 25.3171 25.3171 25.3792 25.3792 25.4227 25.4227 25.4448 25.4448 25.4429 25.4429 25.4151 25.4151 25.3596 25.3596 25.2753 25.2753 25.1615 25.1615 25.0183 25.0183 24.846 24.846 24.6456 24.6456 24.4188 24.4188 24.1675 24.1675 23.8941 23.8941 23.6015 23.6015 23.2927 23.2927 22.971 22.971 22.6396 22.6396 22.302 22.302 21.9614 21.9614 21.621 21.621 21.2836 21.2836 20.9519 20.9519 20.6283 20.6283 20.3147 20.3147 20.0127 20.0127 19.7236 19.7236 19.4483 19.4483 19.1872 19.1872 18.9405 18.9405 18.7083 18.7083 18.4902 18.4902 18.2856 18.2856 18.0938 18.0938 17.9141 17.9141 17.7455 17.7455 17.587 17.587 17.4378 17.4378 17.2968 17.2968 17.1631 17.1631 17.0359 17.0359 16.9142 16.9142 16.7975 16.7975 16.6849 16.6849 16.5759 16.5759 16.47 16.47 16.3668 16.3668 16.2658 16.2658 16.1668 16.1668 16.0694 16.0694 15.9734 15.9734 15.8788 15.8788 15.7852 15.7852 15.6926 15.6926 15.601 15.601 15.5101 15.5101 15.4201 15.4201 15.3308 15.3308 15.2422 15.2422 15.1542 15.1542 15.067 15.067 14.9803 14.9803 14.8943 14.8943 14.8088 14.8088 14.724 14.724 14.6398 14.6398 14.5561 14.5561 14.473 14.473 14.3905 14.3905 14.3086 14.3086 14.2272 14.2272 14.1464 14.1464 14.0661 14.0661 13.9864 13.9864 13.9072 13.9072 13.8286 13.8286 13.7505 13.7505 13.6729 13.6729 13.5958 13.5958 13.5193 13.5193 13.4433 13.4433 13.3677 13.3677 13.2927 13.2927 13.2182 13.2182 13.1442 13.1442 13.0707 13.0707 12.9976 12.9976 12.9251 12.9251 12.853 12.853 12.7814 12.7814 12.7102 12.7102 12.6396 12.6396 12.5694 12.5694 12.4996 12.4996 12.4303 12.4303 12.3615 12.3615 12.2931 12.2931 12.2252 12.2252 12.1577 12.1577 12.0906 12.0906 12.0239 12.0239 11.9577 11.9577 11.892 11.892 11.8266 11.8266 11.7616 11.7616 11.6971 11.6971 11.633 11.633 11.5693 11.5693 11.506 11.506 11.4431 11.4431 11.3806 11.3806 11.3184 11.3184 11.2567 11.2567 11.1954 11.1954 11.1344 11.1344 11.0739 11.0739 11.0137 11.0137 10.9539 10.9539 10.8944 10.8944 10.8353 10.8353 10.7766 10.7766 10.7183 10.7183 10.6603 10.6603 10.6027 10.6027 10.5454 10.5454 10.4885 10.4885 10.4319 10.4319 10.3757 10.3757 10.3198 10.3198 10.2642 10.2642 10.209 10.209 10.1542 10.1542 10.0996 10.0996 10.0454 10.0454 9.99153 9.99153 9.93797 9.93797 9.88473 9.88473 9.83181 9.83181 9.77921 9.77921 9.72693 9.72693 9.67495 9.67495 9.62329 9.62329 9.57193 9.57193 9.52087 9.52087 9.47012 9.47012 9.41967 9.41967 9.36952 9.36952 9.31966 9.31966 9.27009 9.27009 9.22081 9.22081 9.17183 9.17183 9.12313 9.12313 9.07471 9.07471 9.02658 9.02658 8.97872 8.97872 8.93114 8.93114 8.88384 8.88384 8.83681 8.83681 8.79005 8.79005 8.74356 8.74356 8.69734 8.69734 8.65139 8.65139 8.60569 8.60569 8.56026 8.56026 8.51509 8.51509 8.47017 8.47017 8.42551 8.42551 8.38111 8.38111 8.33695 8.33695 8.29304 8.29304 8.24939 8.24939 8.20597 8.20597 8.16281 8.16281 8.11988 8.11988 8.0772 8.0772 8.03475 8.03475 7.99254 7.99254 7.95057 7.95057 7.90883 7.90883 7.86732 7.86732 7.82605 7.82605 7.785 7.785 7.74417 7.74417 7.70358 7.70358 7.6632 7.6632 7.62305 7.62305 7.58312 7.58312 7.54341 7.54341 7.50392 7.50392 7.46464 7.46464 7.42557 7.42557 7.38672 7.38672 7.34808 7.34808 7.30965 7.30965 7.27143 7.27143 7.23341 7.23341 7.1956 7.1956 7.15799 7.15799 7.12058 7.12058 7.08338 7.08338 7.04637 7.04637 7.00957 7.00957 6.97296 6.97296 6.93654 6.93654 6.90032 6.90032 6.86429 6.86429 6.82846 6.82846 6.79281 6.79281 6.75735 6.75735 6.72208 6.72208 6.687 6.687 6.6521 6.6521 6.61738 6.61738 6.58284 6.58284 6.54849 6.54849 6.51432 6.51432 6.48032 6.48032 6.4465 6.4465 6.41286 6.41286 6.3794 6.3794 6.3461 6.3461 6.31298 6.31298 6.28003 6.28003 6.24725 6.24725 6.21464 6.21464 6.1822 6.1822 6.14993 6.14993 6.11782 6.11782 6.08587 6.08587 6.05409 6.05409 6.02247 6.02247 5.99102 5.99102 5.95972 5.95972 5.92858 5.92858 5.8976 5.8976 5.86678 5.86678 5.83611 5.83611 5.8056 5.8056 5.77524 5.77524 5.74504 5.74504 5.71499 5.71499 5.68508 5.68508 5.65533 5.65533 5.62573 5.62573 5.59628 5.59628 5.56697 5.56697 5.53781 5.53781 5.50879 5.50879 5.47992 5.47992 5.45119 5.45119 5.42261 5.42261 5.39417 5.39417 5.36586 5.36586 5.3377 5.3377 5.30967 5.30967 5.28179 5.28179 5.25404 5.25404 5.22643 5.22643 5.19895 5.19895 5.1716 5.1716 5.14439 5.14439 5.11732 5.11732 5.09037 5.09037 5.06356 5.06356 5.03687 5.03687 5.01032 5.01032 4.98389 4.98389 4.9576 4.9576 4.93143 4.93143 4.90538 4.90538 4.87946 4.87946 4.85367 4.85367 4.828 4.828 4.80245 4.80245 4.77703 4.77703 4.75172 4.75172 4.72654 4.72654 4.70148 4.70148 4.67654 4.67654 4.65171 4.65171 4.62701 4.62701 4.60242 4.60242 4.57795 4.57795 4.55359 4.55359 4.52935 4.52935 4.50523 4.50523 4.48121 4.48121 4.45731 4.45731 4.43352 4.43352 4.40985 4.40985 4.38628 4.38628 4.36283 4.36283 4.33948 4.33948 4.31625 4.31625 4.29312 4.29312 4.2701 4.2701 4.24719 4.24719 4.22438 4.22438 4.20168 4.20168 4.17909 4.17909 4.1566 4.1566 4.13421 4.13421 4.11193 4.11193 4.08974 4.08974 4.06767 4.06767 4.04569 4.04569 4.02381 4.02381 4.00204 4.00204 3.98036 3.98036 3.95878 3.95878 3.9373 3.9373 3.91592 3.91592 3.89464 3.89464 3.87345 3.87345 3.85236 3.85236 3.83137 3.83137 3.81047 3.81047 3.78966 3.78966 3.76895 3.76895 3.74833 3.74833 3.72781 3.72781 3.70738 3.70738 3.68704 3.68704 3.66679 3.66679 3.64663 3.64663 3.62656 3.62656 3.60659 3.60659 3.5867 3.5867 3.5669 3.5669 3.54719 3.54719 3.52756 3.52756 3.50803 3.50803 3.48858 3.48858 3.46922 3.46922 3.44994 3.44994 3.43075 3.43075 3.41164 3.41164 3.39262 3.39262 3.37368 3.37368 3.35482 3.35482 3.33605 3.33605 3.31736 3.31736 3.29875 3.29875 3.28023 3.28023 3.26178 3.26178 3.24342 3.24342 3.22513 3.22513 3.20693 3.20693 3.1888 3.1888 3.17076 3.17076 3.15279 3.15279 3.1349 3.1349 3.11709 3.11709 3.09936 3.09936 3.0817 3.0817 3.06412 3.06412 3.04661 3.04661 3.02918 3.02918 3.01183 3.01183 2.99455 2.99455 2.97734 2.97734 2.96021 2.96021 2.94315 2.94315 2.92616 2.92616 2.90925 2.90925 2.89241 2.89241 2.87564 2.87564 2.85894 2.85894 2.84232 2.84232 2.82576 2.82576 2.80928 2.80928 2.79286 2.79286 2.77652 2.77652 2.76024 2.76024 2.74404 2.74404 2.7279 2.7279 2.71183 2.71183 2.69582 2.69582 2.67989 2.67989 2.66402 2.66402 2.64822 2.64822 2.63248 2.63248 2.61682 2.61682 2.60121 2.60121 2.58567 2.58567 2.5702 2.5702 2.55479 2.55479 2.53945 2.53945 2.52417 2.52417 2.50895 2.50895 2.4938 2.4938 2.47871 2.47871 2.46368 2.46368 2.44872 2.44872 2.43381 2.43381 2.41897 2.41897 2.40419 2.40419 2.38947 2.38947 2.37481 2.37481 2.36021 2.36021 2.34567 2.34567 2.3312 2.3312 2.31678 2.31678 2.30242 2.30242 2.28812 2.28812 2.27387 2.27387 2.25969 2.25969 2.24556 2.24556 2.2315 2.2315 2.21748 2.21748 2.20353 2.20353 2.18963 2.18963 2.17579 2.17579 2.16201 2.16201 2.14828 2.14828 2.13461 2.13461 2.12099 2.12099 2.10743 2.10743 2.09392 2.09392 2.08046 2.08046 2.06707 2.06707 2.05372 2.05372 2.04043 2.04043 2.02719 2.02719 2.01401 2.01401 2.00087 2.00087 1.9878 1.9878 1.97477 1.97477 1.96179 1.96179 1.94887 1.94887 1.936 1.936 1.92318 1.92318 1.91041 1.91041 1.89769 1.89769 1.88503 1.88503 1.87241 1.87241 1.85984 1.85984 1.84733 1.84733 1.83486 1.83486 1.82244 1.82244 1.81007 1.81007 1.79775 1.79775 1.78548 1.78548 1.77326 1.77326 1.76108 1.76108 1.74895 1.74895 1.73688 1.73688 1.72484 1.72484 1.71286 1.71286 1.70092 1.70092 1.68903 1.68903 1.67719 1.67719 1.66539 1.66539 1.65364 1.65364 1.64193 1.64193 1.63027 1.63027 1.61866 1.61866 1.60709 1.60709 1.59556 1.59556 1.58408 1.58408 1.57265 1.57265 1.56125 1.56125 1.54991 1.54991 1.5386 1.5386 1.52735 1.52735 1.51613 1.51613 1.50496 1.50496 1.49383 1.49383 1.48274 1.48274 1.4717 1.4717 1.4607 1.4607 1.44974 1.44974 1.43882 1.43882 1.42795 1.42795 1.41711 1.41711 1.40632 1.40632 1.39557 1.39557 1.38486 1.38486 1.37419 1.37419 1.36356 1.36356 1.35298 1.35298 1.34243 1.34243 1.33192 1.33192 1.32146 1.32146 1.31103 1.31103 1.30064 1.30064 1.2903 1.2903 1.27999 1.27999 1.26972 1.26972 1.25949 1.25949 1.24929 1.24929 1.23914 1.23914 1.22902 1.22902 1.21895 1.21895 1.20891 1.20891 1.19891 1.19891 1.18894 1.18894 1.17902 1.17902 1.16913 1.16913 1.15928 1.15928 1.14946 1.14946 1.13968 1.13968 1.12994 1.12994 1.12024 1.12024 1.11057 1.11057 1.10094 1.10094 1.09134 1.09134 1.08178 1.08178 1.07225 1.07225 1.06276 1.06276 1.05331 1.05331 1.04389 1.04389 1.0345 1.0345 1.02515 1.02515 1.01584 1.01584 1.00656 1.00656 0.997312 0.997312 0.9881 0.9881 0.978922 0.978922 0.969778 0.969778 0.960667 0.960667 0.95159 0.95159 0.942547 0.942547 0.933537 0.933537 0.92456 0.92456 0.915616 0.915616 0.906705 0.906705 0.897827 0.897827 0.888981 0.888981 0.880168 0.880168 0.871386 0.871386 0.862637 0.862637 0.85392 0.85392 0.845235 0.845235 0.836582 0.836582 0.82796 0.82796 0.819369 0.819369 0.81081 0.81081 0.802282 0.802282 0.793785 0.793785 0.785319 0.785319 0.776883 0.776883 0.768478 0.768478 0.760104 0.760104 0.75176 0.75176 0.743446 0.743446 0.735162 0.735162 0.726908 0.726908 0.718684 0.718684 0.71049 0.71049 0.702325 0.702325 0.694189 0.694189 0.686083 0.686083 0.678006 0.678006 0.669958 0.669958 0.661939 0.661939 0.653949 0.653949 0.645987 0.645987 0.638054 0.638054 0.63015 0.63015 0.622274 0.622274 0.614425 0.614425 0.606605 0.606605 0.598813 0.598813 0.591049 0.591049 0.583312 0.583312 0.575603 0.575603 0.567922 0.567922 0.560268 0.560268 0.552641 0.552641 0.545041 0.545041 0.537468 0.537468 0.529922 0.529922 0.522403 0.522403 0.51491 0.51491 0.507444 0.507444 0.500004 0.500004 0.492591 0.492591 0.485204 0.485204 0.477843 0.477843 0.470508 0.470508 0.463199 0.463199 0.455915 0.455915 0.448658 0.448658 0.441426 0.441426 0.434219 0.434219 0.427037 0.427037 0.419881 0.419881 0.41275 0.41275 0.405644 0.405644 0.398563 0.398563 0.391507 0.391507 0.384475 0.384475 0.377469 0.377469 0.370486 0.370486 0.363528 0.363528 0.356594 0.356594 0.349685 0.349685 0.342799 0.342799 0.335938 0.335938 0.3291 0.3291 0.322287 0.322287 0.315497 0.315497 0.30873 0.30873 0.301987 0.301987 0.295268 0.295268 0.288572 0.288572 0.281899 0.281899 0.275249 0.275249 0.268622 0.268622 0.262018 0.262018 0.255437 0.255437 0.248879 0.248879 0.242343 0.242343 0.23583 0.23583 0.22934 0.22934 0.222872 0.222872 0.216426 0.216426 0.210002 0.210002 0.2036 0.2036 0.197221 0.197221 0.190863 0.190863 0.184527 0.184527 0.178213 0.178213 0.171921 0.171921 0.16565 0.16565 0.159401 0.159401 0.153173 0.153173 0.146967 0.146967 0.140781 0.140781 0.134617 0.134617 0.128474 0.128474 0.122352 0.122352 0.11625 0.11625 0.11017 0.11017 0.10411 0.10411 0.0980711 0.0980711 0.0920526 0.0920526 0.0860546 0.0860546 0.0800769 0.0800769 0.0741196 0.0741196 0.0681825 0.0681825 0.0622656 0.0622656 0.0563687 0.0563687 0.0504918 0.0504918 0.0446349 0.0446349 0.0387978 0.0387978 0.0329804 0.0329804 0.0271827 0.0271827 0.0214047 0.0214047 0.0156461 0.0156461 0.00990702 0.00990702 0.00418729 0.00418729 -0.00151314 -0.00151314 -0.00719435 -0.00719435 -0.0128564 -0.0128564 -0.0184994 -0.0184994 -0.0241234 -0.0241234 -0.0297285 -0.0297285 -0.0353147 -0.0353147 -0.0408822 -0.0408822 -0.046431 -0.046431 -0.0519611 -0.0519611 -0.0574727 -0.0574727 -0.0629658 -0.0629658 -0.0684405 -0.0684405 -0.0738968 -0.0738968 -0.0793349 -0.0793349 -0.0847548 -0.0847548 -0.0901566 -0.0901566 -0.0955403 -0.0955403 -0.100906 -0.100906 -0.106254 -0.106254 -0.111584 -0.111584 -0.116896 -0.116896 -0.122191 -0.122191 -0.127467 -0.127467 -0.132727 -0.132727 -0.137969 -0.137969 -0.143193 -0.143193 -0.1484 -0.1484 -0.15359 -0.15359 -0.158762 -0.158762 -0.163917 -0.163917 -0.169055 -0.169055 -0.174177 -0.174177 -0.179281 -0.179281 -0.184368 -0.184368 -0.189438 -0.189438 -0.194492 -0.194492 -0.199529 -0.199529 -0.204549 -0.204549 -0.209553 -0.209553 -0.21454 -0.21454 -0.219511 -0.219511 -0.224465 -0.224465 -0.229403 -0.229403 -0.234325 -0.234325 -0.23923 -0.23923 -0.244119 -0.244119 -0.248993 -0.248993 -0.25385 -0.25385 -0.258691 -0.258691 -0.263516 -0.263516 -0.268326 -0.268326 -0.273119 -0.273119 -0.277897 -0.277897 -0.28266 -0.28266 -0.287406 -0.287406 -0.292137 -0.292137 -0.296853 -0.296853 -0.301553 -0.301553 -0.306238 -0.306238 -0.310907 -0.310907 -0.315562 -0.315562 -0.320201 -0.320201 -0.324824 -0.324824 -0.329433 -0.329433 -0.334027 -0.334027 -0.338605 -0.338605 -0.343169 -0.343169 -0.347718 -0.347718 -0.352252 -0.352252 -0.356772 -0.356772 -0.361276 -0.361276 -0.365766 -0.365766 -0.370242 -0.370242 -0.374702 -0.374702 -0.379149 -0.379149 -0.383581 -0.383581 -0.387998 -0.387998 -0.392401 -0.392401 -0.39679 -0.39679 -0.401165 -0.401165 -0.405526 -0.405526 -0.409872 -0.409872 -0.414204 -0.414204 -0.418523 -0.418523 -0.422827 -0.422827 -0.427117 -0.427117 -0.431394 -0.431394 -0.435657 -0.435657 -0.439906 -0.439906 -0.444141 -0.444141 -0.448363 -0.448363 -0.452571 -0.452571 -0.456765 -0.456765 -0.460946 -0.460946 -0.465114 -0.465114 -0.469268 -0.469268 -0.473408 -0.473408 -0.477536 -0.477536 -0.48165 -0.48165 -0.485751 -0.485751 -0.489839 -0.489839 -0.493913 -0.493913 -0.497975 -0.497975 -0.502023 -0.502023 -0.506059 -0.506059 -0.510081 -0.510081 -0.514091 -0.514091 -0.518088 -0.518088 -0.522072 -0.522072 -0.526043 -0.526043 -0.530002 -0.530002 -0.533947 -0.533947 -0.537881 -0.537881 -0.541801 -0.541801 -0.54571 -0.54571 -0.549605 -0.549605 -0.553489 -0.553489 -0.55736 -0.55736 -0.561218 -0.561218 -0.565064 -0.565064 -0.568898 -0.568898 -0.57272 -0.57272 -0.57653 -0.57653 -0.580327 -0.580327 -0.584113 -0.584113 -0.587886 -0.587886 -0.591647 -0.591647 -0.595397 -0.595397 -0.599134 -0.599134 -0.60286 -0.60286 -0.606573 -0.606573 -0.610275 -0.610275 -0.613966 -0.613966 -0.617644 -0.617644 -0.621311 -0.621311 -0.624966 -0.624966 -0.62861 -0.62861 -0.632242 -0.632242 -0.635863 -0.635863 -0.639472 -0.639472 -0.64307 -0.64307 -0.646656 -0.646656 -0.650231 -0.650231 -0.653795 -0.653795 -0.657347 -0.657347 -0.660888 -0.660888 -0.664419 -0.664419 -0.667937 -0.667937 -0.671445 -0.671445 -0.674942 -0.674942 -0.678428 -0.678428 -0.681903 -0.681903 -0.685366 -0.685366 -0.688819 -0.688819 -0.692261 -0.692261 -0.695692 -0.695692 -0.699113 -0.699113 -0.702522 -0.702522 -0.705921 -0.705921 -0.709309 -0.709309 -0.712687 -0.712687 -0.716054 -0.716054 -0.71941 -0.71941 -0.722756 -0.722756 -0.726092 -0.726092 -0.729416 -0.729416 -0.732731 -0.732731 -0.736035 -0.736035 -0.739329 -0.739329 -0.742612 -0.742612 -0.745885 -0.745885 -0.749148 -0.749148 -0.7524 -0.7524 -0.755643 -0.755643 -0.758875 -0.758875 -0.762097 -0.762097 -0.765309 -0.765309 -0.768511 -0.768511 -0.771703 -0.771703 -0.774885 -0.774885 -0.778058 -0.778058 -0.78122 -0.78122 -0.784372 -0.784372 -0.787515 -0.787515 -0.790647 -0.790647 -0.79377 -0.79377 -0.796883 -0.796883 -0.799987 -0.799987 -0.803081 -0.803081 -0.806165 -0.806165 -0.809239 -0.809239 -0.812304 -0.812304 -0.81536 -0.81536 -0.818406 -0.818406 -0.821442 -0.821442 -0.824469 -0.824469 -0.827487 -0.827487 -0.830495 -0.830495 -0.833494 -0.833494 -0.836483 -0.836483 -0.839464 -0.839464 -0.842435 -0.842435 -0.845396 -0.845396 -0.848349 -0.848349 -0.851292 -0.851292 -0.854227 -0.854227 -0.857152 -0.857152 -0.860068 -0.860068 -0.862975 -0.862975 -0.865873 -0.865873 -0.868762 -0.868762 -0.871642 -0.871642 -0.874514 -0.874514 -0.877376 -0.877376 -0.880229 -0.880229 -0.883074 -0.883074 -0.88591 -0.88591 -0.888737 -0.888737 -0.891555 -0.891555 -0.894365 -0.894365 -0.897166 -0.897166 -0.899958 -0.899958 -0.902741 -0.902741 -0.905517 -0.905517 -0.908283 -0.908283 -0.911041 -0.911041 -0.91379 -0.91379 -0.916531 -0.916531 -0.919264 -0.919264 -0.921988 -0.921988 -0.924703 -0.924703 -0.927411 -0.927411 -0.930109 -0.930109 -0.9328 -0.9328 -0.935482 -0.935482 -0.938156 -0.938156 -0.940822 -0.940822 -0.94348 -0.94348 -0.946129 -0.946129 -0.94877 -0.94877 -0.951403 -0.951403 -0.954028 -0.954028 -0.956645 -0.956645 -0.959254 -0.959254 -0.961855 -0.961855 -0.964448 -0.964448 -0.967033 -0.967033 -0.96961 -0.96961 -0.972179 -0.972179 -0.97474 -0.97474 -0.977293 -0.977293 -0.979839 -0.979839 -0.982376 -0.982376 -0.984906 -0.984906 -0.987428 -0.987428 -0.989942 -0.989942 -0.992449 -0.992449 -0.994948 -0.994948 -0.997439 -0.997439 -0.999923 -0.999923 -1.0024 -1.0024 -1.00487 -1.00487 -1.00733 -1.00733 -1.00978 -1.00978 -1.01223 -1.01223 -1.01466 -1.01466 -1.0171 -1.0171 -1.01952 -1.01952 -1.02193 -1.02193 -