# vtk DataFile Version 3.0
#This file was generated by the deal.II library on 2020/9/6 at 3:11:40
ASCII
DATASET UNSTRUCTURED_GRID

POINTS 4096 double
1.5 0 0
1.59692 0 0
1.59692 0 0
1.69385 0 0
1.69385 0 0
1.79077 0 0
1.79077 0 0
1.8877 0 0
1.8877 0 0
1.98462 0 0
1.98462 0 0
2.08154 0 0
2.08154 0 0
2.17847 0 0
2.17847 0 0
2.27539 0 0
2.27539 0 0
2.37231 0 0
2.37231 0 0
2.46924 0 0
2.46924 0 0
2.56616 0 0
2.56616 0 0
2.66309 0 0
2.66309 0 0
2.76001 0 0
2.76001 0 0
2.85693 0 0
2.85693 0 0
2.95386 0 0
2.95386 0 0
3.05078 0 0
3.05078 0 0
3.14771 0 0
3.14771 0 0
3.24463 0 0
3.24463 0 0
3.34155 0 0
3.34155 0 0
3.43848 0 0
3.43848 0 0
3.5354 0 0
3.5354 0 0
3.63232 0 0
3.63232 0 0
3.72925 0 0
3.72925 0 0
3.82617 0 0
3.82617 0 0
3.9231 0 0
3.9231 0 0
4.02002 0 0
4.02002 0 0
4.11694 0 0
4.11694 0 0
4.21387 0 0
4.21387 0 0
4.31079 0 0
4.31079 0 0
4.40771 0 0
4.40771 0 0
4.50464 0 0
4.50464 0 0
4.60156 0 0
4.60156 0 0
4.69849 0 0
4.69849 0 0
4.79541 0 0
4.79541 0 0
4.89233 0 0
4.89233 0 0
4.98926 0 0
4.98926 0 0
5.08618 0 0
5.08618 0 0
5.18311 0 0
5.18311 0 0
5.28003 0 0
5.28003 0 0
5.37695 0 0
5.37695 0 0
5.47388 0 0
5.47388 0 0
5.5708 0 0
5.5708 0 0
5.66772 0 0
5.66772 0 0
5.76465 0 0
5.76465 0 0
5.86157 0 0
5.86157 0 0
5.9585 0 0
5.9585 0 0
6.05542 0 0
6.05542 0 0
6.15234 0 0
6.15234 0 0
6.24927 0 0
6.24927 0 0
6.34619 0 0
6.34619 0 0
6.44312 0 0
6.44312 0 0
6.54004 0 0
6.54004 0 0
6.63696 0 0
6.63696 0 0
6.73389 0 0
6.73389 0 0
6.83081 0 0
6.83081 0 0
6.92773 0 0
6.92773 0 0
7.02466 0 0
7.02466 0 0
7.12158 0 0
7.12158 0 0
7.21851 0 0
7.21851 0 0
7.31543 0 0
7.31543 0 0
7.41235 0 0
7.41235 0 0
7.50928 0 0
7.50928 0 0
7.6062 0 0
7.6062 0 0
7.70312 0 0
7.70312 0 0
7.80005 0 0
7.80005 0 0
7.89697 0 0
7.89697 0 0
7.9939 0 0
7.9939 0 0
8.09082 0 0
8.09082 0 0
8.18774 0 0
8.18774 0 0
8.28467 0 0
8.28467 0 0
8.38159 0 0
8.38159 0 0
8.47852 0 0
8.47852 0 0
8.57544 0 0
8.57544 0 0
8.67236 0 0
8.67236 0 0
8.76929 0 0
8.76929 0 0
8.86621 0 0
8.86621 0 0
8.96313 0 0
8.96313 0 0
9.06006 0 0
9.06006 0 0
9.15698 0 0
9.15698 0 0
9.25391 0 0
9.25391 0 0
9.35083 0 0
9.35083 0 0
9.44775 0 0
9.44775 0 0
9.54468 0 0
9.54468 0 0
9.6416 0 0
9.6416 0 0
9.73853 0 0
9.73853 0 0
9.83545 0 0
9.83545 0 0
9.93237 0 0
9.93237 0 0
10.0293 0 0
10.0293 0 0
10.1262 0 0
10.1262 0 0
10.2231 0 0
10.2231 0 0
10.3201 0 0
10.3201 0 0
10.417 0 0
10.417 0 0
10.5139 0 0
10.5139 0 0
10.6108 0 0
10.6108 0 0
10.7078 0 0
10.7078 0 0
10.8047 0 0
10.8047 0 0
10.9016 0 0
10.9016 0 0
10.9985 0 0
10.9985 0 0
11.0955 0 0
11.0955 0 0
11.1924 0 0
11.1924 0 0
11.2893 0 0
11.2893 0 0
11.3862 0 0
11.3862 0 0
11.4832 0 0
11.4832 0 0
11.5801 0 0
11.5801 0 0
11.677 0 0
11.677 0 0
11.7739 0 0
11.7739 0 0
11.8708 0 0
11.8708 0 0
11.9678 0 0
11.9678 0 0
12.0647 0 0
12.0647 0 0
12.1616 0 0
12.1616 0 0
12.2585 0 0
12.2585 0 0
12.3555 0 0
12.3555 0 0
12.4524 0 0
12.4524 0 0
12.5493 0 0
12.5493 0 0
12.6462 0 0
12.6462 0 0
12.7432 0 0
12.7432 0 0
12.8401 0 0
12.8401 0 0
12.937 0 0
12.937 0 0
13.0339 0 0
13.0339 0 0
13.1309 0 0
13.1309 0 0
13.2278 0 0
13.2278 0 0
13.3247 0 0
13.3247 0 0
13.4216 0 0
13.4216 0 0
13.5186 0 0
13.5186 0 0
13.6155 0 0
13.6155 0 0
13.7124 0 0
13.7124 0 0
13.8093 0 0
13.8093 0 0
13.9062 0 0
13.9062 0 0
14.0032 0 0
14.0032 0 0
14.1001 0 0
14.1001 0 0
14.197 0 0
14.197 0 0
14.2939 0 0
14.2939 0 0
14.3909 0 0
14.3909 0 0
14.4878 0 0
14.4878 0 0
14.5847 0 0
14.5847 0 0
14.6816 0 0
14.6816 0 0
14.7786 0 0
14.7786 0 0
14.8755 0 0
14.8755 0 0
14.9724 0 0
14.9724 0 0
15.0693 0 0
15.0693 0 0
15.1663 0 0
15.1663 0 0
15.2632 0 0
15.2632 0 0
15.3601 0 0
15.3601 0 0
15.457 0 0
15.457 0 0
15.554 0 0
15.554 0 0
15.6509 0 0
15.6509 0 0
15.7478 0 0
15.7478 0 0
15.8447 0 0
15.8447 0 0
15.9417 0 0
15.9417 0 0
16.0386 0 0
16.0386 0 0
16.1355 0 0
16.1355 0 0
16.2324 0 0
16.2324 0 0
16.3293 0 0
16.3293 0 0
16.4263 0 0
16.4263 0 0
16.5232 0 0
16.5232 0 0
16.6201 0 0
16.6201 0 0
16.717 0 0
16.717 0 0
16.814 0 0
16.814 0 0
16.9109 0 0
16.9109 0 0
17.0078 0 0
17.0078 0 0
17.1047 0 0
17.1047 0 0
17.2017 0 0
17.2017 0 0
17.2986 0 0
17.2986 0 0
17.3955 0 0
17.3955 0 0
17.4924 0 0
17.4924 0 0
17.5894 0 0
17.5894 0 0
17.6863 0 0
17.6863 0 0
17.7832 0 0
17.7832 0 0
17.8801 0 0
17.8801 0 0
17.9771 0 0
17.9771 0 0
18.074 0 0
18.074 0 0
18.1709 0 0
18.1709 0 0
18.2678 0 0
18.2678 0 0
18.3647 0 0
18.3647 0 0
18.4617 0 0
18.4617 0 0
18.5586 0 0
18.5586 0 0
18.6555 0 0
18.6555 0 0
18.7524 0 0
18.7524 0 0
18.8494 0 0
18.8494 0 0
18.9463 0 0
18.9463 0 0
19.0432 0 0
19.0432 0 0
19.1401 0 0
19.1401 0 0
19.2371 0 0
19.2371 0 0
19.334 0 0
19.334 0 0
19.4309 0 0
19.4309 0 0
19.5278 0 0
19.5278 0 0
19.6248 0 0
19.6248 0 0
19.7217 0 0
19.7217 0 0
19.8186 0 0
19.8186 0 0
19.9155 0 0
19.9155 0 0
20.0125 0 0
20.0125 0 0
20.1094 0 0
20.1094 0 0
20.2063 0 0
20.2063 0 0
20.3032 0 0
20.3032 0 0
20.4001 0 0
20.4001 0 0
20.4971 0 0
20.4971 0 0
20.594 0 0
20.594 0 0
20.6909 0 0
20.6909 0 0
20.7878 0 0
20.7878 0 0
20.8848 0 0
20.8848 0 0
20.9817 0 0
20.9817 0 0
21.0786 0 0
21.0786 0 0
21.1755 0 0
21.1755 0 0
21.2725 0 0
21.2725 0 0
21.3694 0 0
21.3694 0 0
21.4663 0 0
21.4663 0 0
21.5632 0 0
21.5632 0 0
21.6602 0 0
21.6602 0 0
21.7571 0 0
21.7571 0 0
21.854 0 0
21.854 0 0
21.9509 0 0
21.9509 0 0
22.0479 0 0
22.0479 0 0
22.1448 0 0
22.1448 0 0
22.2417 0 0
22.2417 0 0
22.3386 0 0
22.3386 0 0
22.4355 0 0
22.4355 0 0
22.5325 0 0
22.5325 0 0
22.6294 0 0
22.6294 0 0
22.7263 0 0
22.7263 0 0
22.8232 0 0
22.8232 0 0
22.9202 0 0
22.9202 0 0
23.0171 0 0
23.0171 0 0
23.114 0 0
23.114 0 0
23.2109 0 0
23.2109 0 0
23.3079 0 0
23.3079 0 0
23.4048 0 0
23.4048 0 0
23.5017 0 0
23.5017 0 0
23.5986 0 0
23.5986 0 0
23.6956 0 0
23.6956 0 0
23.7925 0 0
23.7925 0 0
23.8894 0 0
23.8894 0 0
23.9863 0 0
23.9863 0 0
24.0833 0 0
24.0833 0 0
24.1802 0 0
24.1802 0 0
24.2771 0 0
24.2771 0 0
24.374 0 0
24.374 0 0
24.4709 0 0
24.4709 0 0
24.5679 0 0
24.5679 0 0
24.6648 0 0
24.6648 0 0
24.7617 0 0
24.7617 0 0
24.8586 0 0
24.8586 0 0
24.9556 0 0
24.9556 0 0
25.0525 0 0
25.0525 0 0
25.1494 0 0
25.1494 0 0
25.2463 0 0
25.2463 0 0
25.3433 0 0
25.3433 0 0
25.4402 0 0
25.4402 0 0
25.5371 0 0
25.5371 0 0
25.634 0 0
25.634 0 0
25.731 0 0
25.731 0 0
25.8279 0 0
25.8279 0 0
25.9248 0 0
25.9248 0 0
26.0217 0 0
26.0217 0 0
26.1187 0 0
26.1187 0 0
26.2156 0 0
26.2156 0 0
26.3125 0 0
26.3125 0 0
26.4094 0 0
26.4094 0 0
26.5063 0 0
26.5063 0 0
26.6033 0 0
26.6033 0 0
26.7002 0 0
26.7002 0 0
26.7971 0 0
26.7971 0 0
26.894 0 0
26.894 0 0
26.991 0 0
26.991 0 0
27.0879 0 0
27.0879 0 0
27.1848 0 0
27.1848 0 0
27.2817 0 0
27.2817 0 0
27.3787 0 0
27.3787 0 0
27.4756 0 0
27.4756 0 0
27.5725 0 0
27.5725 0 0
27.6694 0 0
27.6694 0 0
27.7664 0 0
27.7664 0 0
27.8633 0 0
27.8633 0 0
27.9602 0 0
27.9602 0 0
28.0571 0 0
28.0571 0 0
28.1541 0 0
28.1541 0 0
28.251 0 0
28.251 0 0
28.3479 0 0
28.3479 0 0
28.4448 0 0
28.4448 0 0
28.5417 0 0
28.5417 0 0
28.6387 0 0
28.6387 0 0
28.7356 0 0
28.7356 0 0
28.8325 0 0
28.8325 0 0
28.9294 0 0
28.9294 0 0
29.0264 0 0
29.0264 0 0
29.1233 0 0
29.1233 0 0
29.2202 0 0
29.2202 0 0
29.3171 0 0
29.3171 0 0
29.4141 0 0
29.4141 0 0
29.511 0 0
29.511 0 0
29.6079 0 0
29.6079 0 0
29.7048 0 0
29.7048 0 0
29.8018 0 0
29.8018 0 0
29.8987 0 0
29.8987 0 0
29.9956 0 0
29.9956 0 0
30.0925 0 0
30.0925 0 0
30.1895 0 0
30.1895 0 0
30.2864 0 0
30.2864 0 0
30.3833 0 0
30.3833 0 0
30.4802 0 0
30.4802 0 0
30.5771 0 0
30.5771 0 0
30.6741 0 0
30.6741 0 0
30.771 0 0
30.771 0 0
30.8679 0 0
30.8679 0 0
30.9648 0 0
30.9648 0 0
31.0618 0 0
31.0618 0 0
31.1587 0 0
31.1587 0 0
31.2556 0 0
31.2556 0 0
31.3525 0 0
31.3525 0 0
31.4495 0 0
31.4495 0 0
31.5464 0 0
31.5464 0 0
31.6433 0 0
31.6433 0 0
31.7402 0 0
31.7402 0 0
31.8372 0 0
31.8372 0 0
31.9341 0 0
31.9341 0 0
32.031 0 0
32.031 0 0
32.1279 0 0
32.1279 0 0
32.2249 0 0
32.2249 0 0
32.3218 0 0
32.3218 0 0
32.4187 0 0
32.4187 0 0
32.5156 0 0
32.5156 0 0
32.6125 0 0
32.6125 0 0
32.7095 0 0
32.7095 0 0
32.8064 0 0
32.8064 0 0
32.9033 0 0
32.9033 0 0
33.0002 0 0
33.0002 0 0
33.0972 0 0
33.0972 0 0
33.1941 0 0
33.1941 0 0
33.291 0 0
33.291 0 0
33.3879 0 0
33.3879 0 0
33.4849 0 0
33.4849 0 0
33.5818 0 0
33.5818 0 0
33.6787 0 0
33.6787 0 0
33.7756 0 0
33.7756 0 0
33.8726 0 0
33.8726 0 0
33.9695 0 0
33.9695 0 0
34.0664 0 0
34.0664 0 0
34.1633 0 0
34.1633 0 0
34.2603 0 0
34.2603 0 0
34.3572 0 0
34.3572 0 0
34.4541 0 0
34.4541 0 0
34.551 0 0
34.551 0 0
34.6479 0 0
34.6479 0 0
34.7449 0 0
34.7449 0 0
34.8418 0 0
34.8418 0 0
34.9387 0 0
34.9387 0 0
35.0356 0 0
35.0356 0 0
35.1326 0 0
35.1326 0 0
35.2295 0 0
35.2295 0 0
35.3264 0 0
35.3264 0 0
35.4233 0 0
35.4233 0 0
35.5203 0 0
35.5203 0 0
35.6172 0 0
35.6172 0 0
35.7141 0 0
35.7141 0 0
35.811 0 0
35.811 0 0
35.908 0 0
35.908 0 0
36.0049 0 0
36.0049 0 0
36.1018 0 0
36.1018 0 0
36.1987 0 0
36.1987 0 0
36.2957 0 0
36.2957 0 0
36.3926 0 0
36.3926 0 0
36.4895 0 0
36.4895 0 0
36.5864 0 0
36.5864 0 0
36.6833 0 0
36.6833 0 0
36.7803 0 0
36.7803 0 0
36.8772 0 0
36.8772 0 0
36.9741 0 0
36.9741 0 0
37.071 0 0
37.071 0 0
37.168 0 0
37.168 0 0
37.2649 0 0
37.2649 0 0
37.3618 0 0
37.3618 0 0
37.4587 0 0
37.4587 0 0
37.5557 0 0
37.5557 0 0
37.6526 0 0
37.6526 0 0
37.7495 0 0
37.7495 0 0
37.8464 0 0
37.8464 0 0
37.9434 0 0
37.9434 0 0
38.0403 0 0
38.0403 0 0
38.1372 0 0
38.1372 0 0
38.2341 0 0
38.2341 0 0
38.3311 0 0
38.3311 0 0
38.428 0 0
38.428 0 0
38.5249 0 0
38.5249 0 0
38.6218 0 0
38.6218 0 0
38.7188 0 0
38.7188 0 0
38.8157 0 0
38.8157 0 0
38.9126 0 0
38.9126 0 0
39.0095 0 0
39.0095 0 0
39.1064 0 0
39.1064 0 0
39.2034 0 0
39.2034 0 0
39.3003 0 0
39.3003 0 0
39.3972 0 0
39.3972 0 0
39.4941 0 0
39.4941 0 0
39.5911 0 0
39.5911 0 0
39.688 0 0
39.688 0 0
39.7849 0 0
39.7849 0 0
39.8818 0 0
39.8818 0 0
39.9788 0 0
39.9788 0 0
40.0757 0 0
40.0757 0 0
40.1726 0 0
40.1726 0 0
40.2695 0 0
40.2695 0 0
40.3665 0 0
40.3665 0 0
40.4634 0 0
40.4634 0 0
40.5603 0 0
40.5603 0 0
40.6572 0 0
40.6572 0 0
40.7542 0 0
40.7542 0 0
40.8511 0 0
40.8511 0 0
40.948 0 0
40.948 0 0
41.0449 0 0
41.0449 0 0
41.1418 0 0
41.1418 0 0
41.2388 0 0
41.2388 0 0
41.3357 0 0
41.3357 0 0
41.4326 0 0
41.4326 0 0
41.5295 0 0
41.5295 0 0
[...]
POINT_DATA 4096
SCALARS solution_0 double 1
LOOKUP_TABLE default
1.58811e+14 1.55521e+14 1.55521e+14 1.52746e+14 1.52746e+14 1.50383e+14 1.50383e+14 1.48352e+14 1.48352e+14 1.46589e+14 1.46589e+14 1.45046e+14 1.45046e+14 1.43684e+14 1.43684e+14 1.42472e+14 1.42472e+14 1.41385e+14 1.41385e+14 1.40403e+14 1.40403e+14 1.39507e+14 1.39507e+14 1.38685e+14 1.38685e+14 1.37925e+14 1.37925e+14 1.37217e+14 1.37217e+14 1.36554e+14 1.36554e+14 1.35927e+14 1.35927e+14 1.35332e+14 1.35332e+14 1.34764e+14 1.34764e+14 1.34217e+14 1.34217e+14 1.3369e+14 1.3369e+14 1.33179e+14 1.33179e+14 1.3268e+14 1.3268e+14 1.32192e+14 1.32192e+14 1.31714e+14 1.31714e+14 1.31242e+14 1.31242e+14 1.30776e+14 1.30776e+14 1.30315e+14 1.30315e+14 1.29858e+14 1.29858e+14 1.29403e+14 1.29403e+14 1.28949e+14 1.28949e+14 1.28497e+14 1.28497e+14 1.28046e+14 1.28046e+14 1.27594e+14 1.27594e+14 1.27142e+14 1.27142e+14 1.2669e+14 1.2669e+14 1.26236e+14 1.26236e+14 1.25781e+14 1.25781e+14 1.25324e+14 1.25324e+14 1.24866e+14 1.24866e+14 1.24406e+14 1.24406e+14 1.23945e+14 1.23945e+14 1.23481e+14 1.23481e+14 1.23015e+14 1.23015e+14 1.22547e+14 1.22547e+14 1.22077e+14 1.22077e+14 1.21605e+14 1.21605e+14 1.21131e+14 1.21131e+14 1.20655e+14 1.20655e+14 1.20177e+14 1.20177e+14 1.19696e+14 1.19696e+14 1.19214e+14 1.19214e+14 1.1873e+14 1.1873e+14 1.18244e+14 1.18244e+14 1.17757e+14 1.17757e+14 1.17267e+14 1.17267e+14 1.16776e+14 1.16776e+14 1.16284e+14 1.16284e+14 1.1579e+14 1.1579e+14 1.15294e+14 1.15294e+14 1.14797e+14 1.14797e+14 1.14299e+14 1.14299e+14 1.138e+14 1.138e+14 1.133e+14 1.133e+14 1.12798e+14 1.12798e+14 1.12296e+14 1.12296e+14 1.11793e+14 1.11793e+14 1.11289e+14 1.11289e+14 1.10785e+14 1.10785e+14 1.10279e+14 1.10279e+14 1.09774e+14 1.09774e+14 1.09267e+14 1.09267e+14 1.08761e+14 1.08761e+14 1.08254e+14 1.08254e+14 1.07747e+14 1.07747e+14 1.0724e+14 1.0724e+14 1.06732e+14 1.06732e+14 1.06225e+14 1.06225e+14 1.05718e+14 1.05718e+14 1.0521e+14 1.0521e+14 1.04703e+14 1.04703e+14 1.04196e+14 1.04196e+14 1.0369e+14 1.0369e+14 1.03184e+14 1.03184e+14 1.02678e+14 1.02678e+14 1.02173e+14 1.02173e+14 1.01668e+14 1.01668e+14 1.01164e+14 1.01164e+14 1.00661e+14 1.00661e+14 1.00158e+14 1.00158e+14 9.9656e+13 9.9656e+13 9.91548e+13 9.91548e+13 9.86545e+13 9.86545e+13 9.81551e+13 9.81551e+13 9.76566e+13 9.76566e+13 9.71591e+13 9.71591e+13 9.66626e+13 9.66626e+13 9.61673e+13 9.61673e+13 9.5673e+13 9.5673e+13 9.51799e+13 9.51799e+13 9.4688e+13 9.4688e+13 9.41973e+13 9.41973e+13 9.37079e+13 9.37079e+13 9.32198e+13 9.32198e+13 9.2733e+13 9.2733e+13 9.22476e+13 9.22476e+13 9.17636e+13 9.17636e+13 9.1281e+13 9.1281e+13 9.07999e+13 9.07999e+13 9.03202e+13 9.03202e+13 8.98421e+13 8.98421e+13 8.93655e+13 8.93655e+13 8.88905e+13 8.88905e+13 8.84171e+13 8.84171e+13 8.79452e+13 8.79452e+13 8.74751e+13 8.74751e+13 8.70065e+13 8.70065e+13 8.65397e+13 8.65397e+13 8.60745e+13 8.60745e+13 8.56111e+13 8.56111e+13 8.51494e+13 8.51494e+13 8.46894e+13 8.46894e+13 8.42313e+13 8.42313e+13 8.37749e+13 8.37749e+13 8.33203e+13 8.33203e+13 8.28675e+13 8.28675e+13 8.24165e+13 8.24165e+13 8.19674e+13 8.19674e+13 8.15202e+13 8.15202e+13 8.10748e+13 8.10748e+13 8.06313e+13 8.06313e+13 8.01897e+13 8.01897e+13 7.975e+13 7.975e+13 7.93122e+13 7.93122e+13 7.88763e+13 7.88763e+13 7.84423e+13 7.84423e+13 7.80103e+13 7.80103e+13 7.75802e+13 7.75802e+13 7.71521e+13 7.71521e+13 7.67259e+13 7.67259e+13 7.63017e+13 7.63017e+13 7.58794e+13 7.58794e+13 7.54591e+13 7.54591e+13 7.50408e+13 7.50408e+13 7.46245e+13 7.46245e+13 7.42101e+13 7.42101e+13 7.37978e+13 7.37978e+13 7.33874e+13 7.33874e+13 7.2979e+13 7.2979e+13 7.25726e+13 7.25726e+13 7.21682e+13 7.21682e+13 7.17658e+13 7.17658e+13 7.13654e+13 7.13654e+13 7.0967e+13 7.0967e+13 7.05706e+13 7.05706e+13 7.01762e+13 7.01762e+13 6.97838e+13 6.97838e+13 6.93934e+13 6.93934e+13 6.9005e+13 6.9005e+13 6.86186e+13 6.86186e+13 6.82341e+13 6.82341e+13 6.78517e+13 6.78517e+13 6.74713e+13 6.74713e+13 6.70928e+13 6.70928e+13 6.67163e+13 6.67163e+13 6.63419e+13 6.63419e+13 6.59694e+13 6.59694e+13 6.55988e+13 6.55988e+13 6.52303e+13 6.52303e+13 6.48637e+13 6.48637e+13 6.44991e+13 6.44991e+13 6.41364e+13 6.41364e+13 6.37757e+13 6.37757e+13 6.34169e+13 6.34169e+13 6.30601e+13 6.30601e+13 6.27053e+13 6.27053e+13 6.23524e+13 6.23524e+13 6.20014e+13 6.20014e+13 6.16523e+13 6.16523e+13 6.13052e+13 6.13052e+13 6.096e+13 6.096e+13 6.06167e+13 6.06167e+13 6.02753e+13 6.02753e+13 5.99358e+13 5.99358e+13 5.95982e+13 5.95982e+13 5.92625e+13 5.92625e+13 5.89286e+13 5.89286e+13 5.85967e+13 5.85967e+13 5.82666e+13 5.82666e+13 5.79384e+13 5.79384e+13 5.7612e+13 5.7612e+13 5.72875e+13 5.72875e+13 5.69648e+13 5.69648e+13 5.6644e+13 5.6644e+13 5.6325e+13 5.6325e+13 5.60078e+13 5.60078e+13 5.56924e+13 5.56924e+13 5.53788e+13 5.53788e+13 5.50671e+13 5.50671e+13 5.47571e+13 5.47571e+13 5.44489e+13 5.44489e+13 5.41425e+13 5.41425e+13 5.38378e+13 5.38378e+13 5.35349e+13 5.35349e+13 5.32338e+13 5.32338e+13 5.29344e+13 5.29344e+13 5.26368e+13 5.26368e+13 5.23409e+13 5.23409e+13 5.20467e+13 5.20467e+13 5.17542e+13 5.17542e+13 5.14634e+13 5.14634e+13 5.11743e+13 5.11743e+13 5.0887e+13 5.0887e+13 5.06013e+13 5.06013e+13 5.03172e+13 5.03172e+13 5.00349e+13 5.00349e+13 4.97542e+13 4.97542e+13 4.94751e+13 4.94751e+13 4.91977e+13 4.91977e+13 4.89219e+13 4.89219e+13 4.86478e+13 4.86478e+13 4.83753e+13 4.83753e+13 4.81043e+13 4.81043e+13 4.7835e+13 4.7835e+13 4.75673e+13 4.75673e+13 4.73011e+13 4.73011e+13 4.70366e+13 4.70366e+13 4.67736e+13 4.67736e+13 4.65121e+13 4.65121e+13 4.62522e+13 4.62522e+13 4.59939e+13 4.59939e+13 4.57371e+13 4.57371e+13 4.54818e+13 4.54818e+13 4.5228e+13 4.5228e+13 4.49757e+13 4.49757e+13 4.4725e+13 4.4725e+13 4.44757e+13 4.44757e+13 4.42279e+13 4.42279e+13 4.39816e+13 4.39816e+13 4.37368e+13 4.37368e+13 4.34934e+13 4.34934e+13 4.32515e+13 4.32515e+13 4.3011e+13 4.3011e+13 4.2772e+13 4.2772e+13 4.25344e+13 4.25344e+13 4.22982e+13 4.22982e+13 4.20634e+13 4.20634e+13 4.183e+13 4.183e+13 4.1598e+13 4.1598e+13 4.13674e+13 4.13674e+13 4.11382e+13 4.11382e+13 4.09103e+13 4.09103e+13 4.06838e+13 4.06838e+13 4.04587e+13 4.04587e+13 4.02349e+13 4.02349e+13 4.00125e+13 4.00125e+13 3.97913e+13 3.97913e+13 3.95716e+13 3.95716e+13 3.93531e+13 3.93531e+13 3.91359e+13 3.91359e+13 3.892e+13 3.892e+13 3.87054e+13 3.87054e+13 3.84921e+13 3.84921e+13 3.82801e+13 3.82801e+13 3.80694e+13 3.80694e+13 3.78599e+13 3.78599e+13 3.76516e+13 3.76516e+13 3.74446e+13 3.74446e+13 3.72389e+13 3.72389e+13 3.70344e+13 3.70344e+13 3.68311e+13 3.68311e+13 3.6629e+13 3.6629e+13 3.64281e+13 3.64281e+13 3.62284e+13 3.62284e+13 3.60299e+13 3.60299e+13 3.58326e+13 3.58326e+13 3.56365e+13 3.56365e+13 3.54415e+13 3.54415e+13 3.52477e+13 3.52477e+13 3.50551e+13 3.50551e+13 3.48636e+13 3.48636e+13 3.46733e+13 3.46733e+13 3.44841e+13 3.44841e+13 3.4296e+13 3.4296e+13 3.4109e+13 3.4109e+13 3.39232e+13 3.39232e+13 3.37384e+13 3.37384e+13 3.35548e+13 3.35548e+13 3.33723e+13 3.33723e+13 3.31908e+13 3.31908e+13 3.30104e+13 3.30104e+13 3.28311e+13 3.28311e+13 3.26528e+13 3.26528e+13 3.24757e+13 3.24757e+13 3.22995e+13 3.22995e+13 3.21244e+13 3.21244e+13 3.19504e+13 3.19504e+13 3.17774e+13 3.17774e+13 3.16054e+13 3.16054e+13 3.14344e+13 3.14344e+13 3.12644e+13 3.12644e+13 3.10954e+13 3.10954e+13 3.09275e+13 3.09275e+13 3.07605e+13 3.07605e+13 3.05945e+13 3.05945e+13 3.04295e+13 3.04295e+13 3.02655e+13 3.02655e+13 3.01024e+13 3.01024e+13 2.99403e+13 2.99403e+13 2.97792e+13 2.97792e+13 2.9619e+13 2.9619e+13 2.94597e+13 2.94597e+13 2.93014e+13 2.93014e+13 2.9144e+13 2.9144e+13 2.89875e+13 2.89875e+13 2.8832e+13 2.8832e+13 2.86773e+13 2.86773e+13 2.85236e+13 2.85236e+13 2.83708e+13 2.83708e+13 2.82188e+13 2.82188e+13 2.80678e+13 2.80678e+13 2.79176e+13 2.79176e+13 2.77683e+13 2.77683e+13 2.76199e+13 2.76199e+13 2.74724e+13 2.74724e+13 2.73257e+13 2.73257e+13 2.71798e+13 2.71798e+13 2.70348e+13 2.70348e+13 2.68907e+13 2.68907e+13 2.67474e+13 2.67474e+13 2.66049e+13 2.66049e+13 2.64633e+13 2.64633e+13 2.63225e+13 2.63225e+13 2.61824e+13 2.61824e+13 2.60433e+13 2.60433e+13 2.59049e+13 2.59049e+13 2.57673e+13 2.57673e+13 2.56305e+13 2.56305e+13 2.54945e+13 2.54945e+13 2.53592e+13 2.53592e+13 2.52248e+13 2.52248e+13 2.50911e+13 2.50911e+13 2.49582e+13 2.49582e+13 2.48261e+13 2.48261e+13 2.46947e+13 2.46947e+13 2.45641e+13 2.45641e+13 2.44342e+13 2.44342e+13 2.43051e+13 2.43051e+13 2.41767e+13 2.41767e+13 2.40491e+13 2.40491e+13 2.39221e+13 2.39221e+13 2.3796e+13 2.3796e+13 2.36705e+13 2.36705e+13 2.35457e+13 2.35457e+13 2.34217e+13 2.34217e+13 2.32983e+13 2.32983e+13 2.31757e+13 2.31757e+13 2.30537e+13 2.30537e+13 2.29325e+13 2.29325e+13 2.28119e+13 2.28119e+13 2.2692e+13 2.2692e+13 2.25728e+13 2.25728e+13 2.24543e+13 2.24543e+13 2.23365e+13 2.23365e+13 2.22193e+13 2.22193e+13 2.21027e+13 2.21027e+13 2.19869e+13 2.19869e+13 2.18716e+13 2.18716e+13 2.17571e+13 2.17571e+13 2.16431e+13 2.16431e+13 2.15299e+13 2.15299e+13 2.14172e+13 2.14172e+13 2.13052e+13 2.13052e+13 2.11938e+13 2.11938e+13 2.1083e+13 2.1083e+13 2.09729e+13 2.09729e+13 2.08633e+13 2.08633e+13 2.07544e+13 2.07544e+13 2.06461e+13 2.06461e+13 2.05384e+13 2.05384e+13 2.04313e+13 2.04313e+13 2.03248e+13 2.03248e+13 2.02188e+13 2.02188e+13 2.01135e+13 2.01135e+13 2.00087e+13 2.00087e+13 1.99046e+13 1.99046e+13 1.9801e+13 1.9801e+13 1.96979e+13 1.96979e+13 1.95955e+13 1.95955e+13 1.94936e+13 1.94936e+13 1.93923e+13 1.93923e+13 1.92915e+13 1.92915e+13 1.91913e+13 1.91913e+13 1.90916e+13 1.90916e+13 1.89925e+13 1.89925e+13 1.88939e+13 1.88939e+13 1.87959e+13 1.87959e+13 1.86984e+13 1.86984e+13 1.86014e+13 1.86014e+13 1.8505e+13 1.8505e+13 1.8409e+13 1.8409e+13 1.83137e+13 1.83137e+13 1.82188e+13 1.82188e+13 1.81244e+13 1.81244e+13 1.80306e+13 1.80306e+13 1.79372e+13 1.79372e+13 1.78444e+13 1.78444e+13 1.77521e+13 1.77521e+13 1.76603e+13 1.76603e+13 1.75689e+13 1.75689e+13 1.74781e+13 1.74781e+13 1.73878e+13 1.73878e+13 1.72979e+13 1.72979e+13 1.72085e+13 1.72085e+13 1.71196e+13 1.71196e+13 1.70312e+13 1.70312e+13 1.69433e+13 1.69433e+13 1.68558e+13 1.68558e+13 1.67688e+13 1.67688e+13 1.66823e+13 1.66823e+13 1.65962e+13 1.65962e+13 1.65106e+13 1.65106e+13 1.64254e+13 1.64254e+13 1.63407e+13 1.63407e+13 1.62564e+13 1.62564e+13 1.61726e+13 1.61726e+13 1.60893e+13 1.60893e+13 1.60063e+13 1.60063e+13 1.59239e+13 1.59239e+13 1.58418e+13 1.58418e+13 1.57602e+13 1.57602e+13 1.5679e+13 1.5679e+13 1.55983e+13 1.55983e+13 1.55179e+13 1.55179e+13 1.5438e+13 1.5438e+13 1.53585e+13 1.53585e+13 1.52795e+13 1.52795e+13 1.52008e+13 1.52008e+13 1.51226e+13 1.51226e+13 1.50447e+13 1.50447e+13 1.49673e+13 1.49673e+13 1.48903e+13 1.48903e+13 1.48137e+13 1.48137e+13 1.47374e+13 1.47374e+13 1.46616e+13 1.46616e+13 1.45862e+13 1.45862e+13 1.45111e+13 1.45111e+13 1.44365e+13 1.44365e+13 1.43622e+13 1.43622e+13 1.42883e+13 1.42883e+13 1.42148e+13 1.42148e+13 1.41417e+13 1.41417e+13 1.4069e+13 1.4069e+13 1.39966e+13 1.39966e+13 1.39246e+13 1.39246e+13 1.3853e+13 1.3853e+13 1.37817e+13 1.37817e+13 1.37109e+13 1.37109e+13 1.36403e+13 1.36403e+13 1.35702e+13 1.35702e+13 1.35004e+13 1.35004e+13 1.34309e+13 1.34309e+13 1.33618e+13 1.33618e+13 1.32931e+13 1.32931e+13 1.32247e+13 1.32247e+13 1.31566e+13 1.31566e+13 1.30889e+13 1.30889e+13 1.30216e+13 1.30216e+13 1.29545e+13 1.29545e+13 1.28879e+13 1.28879e+13 1.28215e+13 1.28215e+13 1.27555e+13 1.27555e+13 1.26898e+13 1.26898e+13 1.26245e+13 1.26245e+13 1.25595e+13 1.25595e+13 1.24948e+13 1.24948e+13 1.24304e+13 1.24304e+13 1.23664e+13 1.23664e+13 1.23027e+13 1.23027e+13 1.22393e+13 1.22393e+13 1.21762e+13 1.21762e+13 1.21134e+13 1.21134e+13 1.2051e+13 1.2051e+13 1.19888e+13 1.19888e+13 1.1927e+13 1.1927e+13 1.18654e+13 1.18654e+13 1.18042e+13 1.18042e+13 1.17433e+13 1.17433e+13 1.16827e+13 1.16827e+13 1.16224e+13 1.16224e+13 1.15623e+13 1.15623e+13 1.15026e+13 1.15026e+13 1.14432e+13 1.14432e+13 1.13841e+13 1.13841e+13 1.13252e+13 1.13252e+13 1.12667e+13 1.12667e+13 1.12084e+13 1.12084e+13 1.11504e+13 1.11504e+13 1.10927e+13 1.10927e+13 1.10353e+13 1.10353e+13 1.09781e+13 1.09781e+13 1.09213e+13 1.09213e+13 1.08647e+13 1.08647e+13 1.08084e+13 1.08084e+13 1.07524e+13 1.07524e+13 1.06966e+13 1.06966e+13 1.06411e+13 1.06411e+13 1.05859e+13 1.05859e+13 1.05309e+13 1.05309e+13 1.04763e+13 1.04763e+13 1.04218e+13 1.04218e+13 1.03677e+13 1.03677e+13 1.03138e+13 1.03138e+13 1.02601e+13 1.02601e+13 1.02068e+13 1.02068e+13 1.01536e+13 1.01536e+13 1.01008e+13 1.01008e+13 1.00481e+13 1.00481e+13 9.99577e+12 9.99577e+12 9.94366e+12 9.94366e+12 9.89179e+12 9.89179e+12 9.84017e+12 9.84017e+12 9.7888e+12 9.7888e+12 9.73767e+12 9.73767e+12 9.68679e+12 9.68679e+12 9.63614e+12 9.63614e+12 9.58574e+12 9.58574e+12 9.53557e+12 9.53557e+12 9.48565e+12 9.48565e+12 9.43595e+12 9.43595e+12 9.3865e+12 9.3865e+12 9.33727e+12 9.33727e+12 9.28828e+12 9.28828e+12 9.23952e+12 9.23952e+12 9.19099e+12 9.19099e+12 9.14269e+12 9.14269e+12 9.09461e+12 9.09461e+12 9.04676e+12 9.04676e+12 8.99913e+12 8.99913e+12 8.95172e+12 8.95172e+12 8.90454e+12 8.90454e+12 8.85757e+12 8.85757e+12 8.81083e+12 8.81083e+12 8.7643e+12 8.7643e+12 8.71799e+12 8.71799e+12 8.67189e+12 8.67189e+12 8.62601e+12 8.62601e+12 8.58034e+12 8.58034e+12 8.53488e+12 8.53488e+12 8.48963e+12 8.48963e+12 8.44459e+12 8.44459e+12 8.39976e+12 8.39976e+12 8.35514e+12 8.35514e+12 8.31072e+12 8.31072e+12 8.2665e+12 8.2665e+12 8.22249e+12 8.22249e+12 8.17868e+12 8.17868e+12 8.13506e+12 8.13506e+12 8.09165e+12 8.09165e+12 8.04844e+12 8.04844e+12 8.00543e+12 8.00543e+12 7.96261e+12 7.96261e+12 7.91999e+12 7.91999e+12 7.87756e+12 7.87756e+12 7.83532e+12 7.83532e+12 7.79327e+12 7.79327e+12 7.75142e+12 7.75142e+12 7.70976e+12 7.70976e+12 7.66828e+12 7.66828e+12 7.62699e+12 7.62699e+12 7.58589e+12 7.58589e+12 7.54497e+12 7.54497e+12 7.50424e+12 7.50424e+12 7.46369e+12 7.46369e+12 7.42333e+12 7.42333e+12 7.38314e+12 7.38314e+12 7.34314e+12 7.34314e+12 7.30331e+12 7.30331e+12 7.26366e+12 7.26366e+12 7.22419e+12 7.22419e+12 7.1849e+12 7.1849e+12 7.14578e+12 7.14578e+12 7.10684e+12 7.10684e+12 7.06807e+12 7.06807e+12 7.02947e+12 7.02947e+12 6.99104e+12 6.99104e+12 6.95279e+12 6.95279e+12 6.9147e+12 6.9147e+12 6.87678e+12 6.87678e+12 6.83903e+12 6.83903e+12 6.80145e+12 6.80145e+12 6.76403e+12 6.76403e+12 6.72678e+12 6.72678e+12 6.68969e+12 6.68969e+12 6.65277e+12 6.65277e+12 6.61601e+12 6.61601e+12 6.57941e+12 6.57941e+12 6.54296e+12 6.54296e+12 6.50668e+12 6.50668e+12 6.47056e+12 6.47056e+12 6.4346e+12 6.4346e+12 6.39879e+12 6.39879e+12 6.36314e+12 6.36314e+12 6.32764e+12 6.32764e+12 6.2923e+12 6.2923e+12 6.25712e+12 6.25712e+12 6.22208e+12 6.22208e+12 6.1872e+12 6.1872e+12 6.15247e+12 6.15247e+12 6.11789e+12 6.11789e+12 6.08346e+12 6.08346e+12 6.04918e+12 6.04918e+12 6.01504e+12 6.01504e+12 5.98106e+12 5.98106e+12 5.94721e+12 5.94721e+12 5.91352e+12 5.91352e+12 5.87997e+12 5.87997e+12 5.84656e+12 5.84656e+12 5.8133e+12 5.8133e+12 5.78018e+12 5.78018e+12 5.7472e+12 5.7472e+12 5.71437e+12 5.71437e+12 5.68167e+12 5.68167e+12 5.64911e+12 5.64911e+12 5.61669e+12 5.61669e+12 5.58441e+12 5.58441e+12 5.55227e+12 5.55227e+12 5.52026e+12 5.52026e+12 5.48839e+12 5.48839e+12 5.45666e+12 5.45666e+12 5.42506e+12 5.42506e+12 5.39359e+12 5.39359e+12 5.36226e+12 5.36226e+12 5.33105e+12 5.33105e+12 5.29998e+12 5.29998e+12 5.26905e+12 5.26905e+12 5.23824e+12 5.23824e+12 5.20756e+12 5.20756e+12 5.17701e+12 5.17701e+12 5.14659e+12 5.14659e+12 5.11629e+12 5.11629e+12 5.08613e+12 5.08613e+12 5.05608e+12 5.05608e+12 5.02617e+12 5.02617e+12 4.99638e+12 4.99638e+12 4.96671e+12 4.96671e+12 4.93717e+12 4.93717e+12 4.90775e+12 4.90775e+12 4.87845e+12 4.87845e+12 4.84928e+12 4.84928e+12 4.82023e+12 4.82023e+12 4.79129e+12 4.79129e+12 4.76248e+12 4.76248e+12 4.73378e+12 4.73378e+12 4.70521e+12 4.70521e+12 4.67675e+12 4.67675e+12 4.64841e+12 4.64841e+12 4.62019e+12 4.62019e+12 4.59208e+12 4.59208e+12 4.56409e+12 4.56409e+12 4.53622e+12 4.53622e+12 4.50845e+12 4.50845e+12 4.48081e+12 4.48081e+12 4.45327e+12 4.45327e+12 4.42585e+12 4.42585e+12 4.39854e+12 4.39854e+12 4.37134e+12 4.37134e+12 4.34426e+12 4.34426e+12 4.31728e+12 4.31728e+12 4.29042e+12 4.29042e+12 4.26366e+12 4.26366e+12 4.23701e+12 4.23701e+12 4.21047e+12 4.21047e+12 4.18404e+12 4.18404e+12 4.15772e+12 4.15772e+12 4.1315e+12 4.1315e+12 4.10539e+12 4.10539e+12 4.07938e+12 4.07938e+12 4.05348e+12 4.05348e+12 4.02768e+12 4.02768e+12 4.00199e+12 4.00199e+12 3.9764e+12 3.9764e+12 3.95092e+12 3.95092e+12 3.92553e+12 3.92553e+12 3.90025e+12 3.90025e+12 3.87507e+12 3.87507e+12 3.84999e+12 3.84999e+12 3.82502e+12 3.82502e+12 3.80014e+12 3.80014e+12 3.77536e+12 3.77536e+12 3.75068e+12 3.75068e+12 3.7261e+12 3.7261e+12 3.70161e+12 3.70161e+12 3.67723e+12 3.67723e+12 3.65294e+12 3.65294e+12 3.62875e+12 3.62875e+12 3.60465e+12 3.60465e+12 3.58065e+12 3.58065e+12 3.55675e+12 3.55675e+12 3.53294e+12 3.53294e+12 3.50922e+12 3.50922e+12 3.4856e+12 3.4856e+12 3.46207e+12 3.46207e+12 3.43863e+12 3.43863e+12 3.41529e+12 3.41529e+12 3.39204e+12 3.39204e+12 3.36888e+12 3.36888e+12 3.34581e+12 3.34581e+12 3.32283e+12 3.32283e+12 3.29994e+12 3.29994e+12 3.27714e+12 3.27714e+12 3.25444e+12 3.25444e+12 3.23182e+12 3.23182e+12 3.20928e+12 3.20928e+12 3.18684e+12 3.18684e+12 3.16448e+12 3.16448e+12 3.14222e+12 3.14222e+12 3.12003e+12 3.12003e+12 3.09794e+12 3.09794e+12 3.07593e+12 3.07593e+12 3.05401e+12 3.05401e+12 3.03217e+12 3.03217e+12 3.01041e+12 3.01041e+12 2.98874e+12 2.98874e+12 2.96716e+12 2.96716e+12 2.94566e+12 2.94566e+12 2.92424e+12 2.92424e+12 2.9029e+12 2.9029e+12 2.88165e+12 2.88165e+12 2.86048e+12 2.86048e+12 2.83939e+12 2.83939e+12 2.81838e+12 2.81838e+12 2.79745e+12 2.79745e+12 2.7766e+12 2.7766e+12 2.75583e+12 2.75583e+12 2.73515e+12 2.73515e+12 2.71454e+12 2.71454e+12 2.69401e+12 2.69401e+12 2.67356e+12 2.67356e+12 2.65318e+12 2.65318e+12 2.63289e+12 2.63289e+12 2.61267e+12 2.61267e+12 2.59253e+12 2.59253e+12 2.57247e+12 2.57247e+12 2.55248e+12 2.55248e+12 2.53257e+12 2.53257e+12 2.51273e+12 2.51273e+12 2.49297e+12 2.49297e+12 2.47329e+12 2.47329e+12 2.45368e+12 2.45368e+12 2.43414e+12 2.43414e+12 2.41468e+12 2.41468e+12 2.39529e+12 2.39529e+12 2.37597e+12 2.37597e+12 2.35673e+12 2.35673e+12 2.33756e+12 2.33756e+12 2.31846e+12 2.31846e+12 2.29944e+12 2.29944e+12 2.28049e+12 2.28049e+12 2.2616e+12 2.2616e+12 2.24279e+12 2.24279e+12 2.22405e+12 2.22405e+12 2.20538e+12 2.20538e+12 2.18678e+12 2.18678e+12 2.16825e+12 2.16825e+12 2.14978e+12 2.14978e+12 2.13139e+12 2.13139e+12 2.11307e+12 2.11307e+12 2.09481e+12 2.09481e+12 2.07662e+12 2.07662e+12 2.0585e+12 2.0585e+12 2.04045e+12 2.04045e+12 2.02247e+12 2.02247e+12 2.00455e+12 2.00455e+12 1.9867e+12 1.9867e+12 1.96891e+12 1.96891e+12 1.95119e+12 1.95119e+12 1.93354e+12 1.93354e+12 1.91595e+12 1.91595e+12 1.89843e+12 1.89843e+12 1.88097e+12 1.88097e+12 1.86357e+12 1.86357e+12 1.84624e+12 1.84624e+12 1.82898e+12 1.82898e+12 1.81178e+12 1.81178e+12 1.79464e+12 1.79464e+12 1.77756e+12 1.77756e+12 1.76055e+12 1.76055e+12 1.7436e+12 1.7436e+12 1.72671e+12 1.72671e+12 1.70988e+12 1.70988e+12 1.69312e+12 1.69312e+12 1.67642e+12 1.67642e+12 1.65977e+12 1.65977e+12 1.64319e+12 1.64319e+12 1.62667e+12 1.62667e+12 1.61021e+12 1.61021e+12 1.59381e+12 1.59381e+12 1.57747e+12 1.57747e+12 1.56119e+12 1.56119e+12 1.54497e+12 1.54497e+12 1.52881e+12 1.52881e+12 1.5127e+12 1.5127e+12 1.49666e+12 1.49666e+12 1.48067e+12 1.48067e+12 1.46474e+12 1.46474e+12 1.44887e+12 1.44887e+12 1.43306e+12 1.43306e+12 1.4173e+12 1.4173e+12 1.4016e+12 1.4016e+12 1.38596e+12 1.38596e+12 1.37037e+12 1.37037e+12 1.35484e+12 1.35484e+12 1.33937e+12 1.33937e+12 1.32395e+12 1.32395e+12 1.30859e+12 1.30859e+12 1.29328e+12 1.29328e+12 1.27803e+12 1.27803e+12 1.26283e+12 1.26283e+12 1.24769e+12 1.24769e+12 1.2326e+12 1.2326e+12 1.21756e+12 1.21756e+12 1.20258e+12 1.20258e+12 1.18766e+12 1.18766e+12 1.17278e+12 1.17278e+12 1.15796e+12 1.15796e+12 1.14319e+12 1.14319e+12 1.12848e+12 1.12848e+12 1.11382e+12 1.11382e+12 1.09921e+12 1.09921e+12 1.08465e+12 1.08465e+12 1.07014e+12 1.07014e+12 1.05569e+12 1.05569e+12 1.04128e+12 1.04128e+12 1.02693e+12 1.02693e+12 1.01263e+12 1.01263e+12 9.9838e+11 9.9838e+11 9.8418e+11 9.8418e+11 9