# vtk DataFile Version 3.0
#This file was generated by the deal.II library on 2020/9/6 at 3:08:06
ASCII
DATASET UNSTRUCTURED_GRID

POINTS 4096 double
1.5 0 0
1.59692 0 0
1.59692 0 0
1.69385 0 0
1.69385 0 0
1.79077 0 0
1.79077 0 0
1.8877 0 0
1.8877 0 0
1.98462 0 0
1.98462 0 0
2.08154 0 0
2.08154 0 0
2.17847 0 0
2.17847 0 0
2.27539 0 0
2.27539 0 0
2.37231 0 0
2.37231 0 0
2.46924 0 0
2.46924 0 0
2.56616 0 0
2.56616 0 0
2.66309 0 0
2.66309 0 0
2.76001 0 0
2.76001 0 0
2.85693 0 0
2.85693 0 0
2.95386 0 0
2.95386 0 0
3.05078 0 0
3.05078 0 0
3.14771 0 0
3.14771 0 0
3.24463 0 0
3.24463 0 0
3.34155 0 0
3.34155 0 0
3.43848 0 0
3.43848 0 0
3.5354 0 0
3.5354 0 0
3.63232 0 0
3.63232 0 0
3.72925 0 0
3.72925 0 0
3.82617 0 0
3.82617 0 0
3.9231 0 0
3.9231 0 0
4.02002 0 0
4.02002 0 0
4.11694 0 0
4.11694 0 0
4.21387 0 0
4.21387 0 0
4.31079 0 0
4.31079 0 0
4.40771 0 0
4.40771 0 0
4.50464 0 0
4.50464 0 0
4.60156 0 0
4.60156 0 0
4.69849 0 0
4.69849 0 0
4.79541 0 0
4.79541 0 0
4.89233 0 0
4.89233 0 0
4.98926 0 0
4.98926 0 0
5.08618 0 0
5.08618 0 0
5.18311 0 0
5.18311 0 0
5.28003 0 0
5.28003 0 0
5.37695 0 0
5.37695 0 0
5.47388 0 0
5.47388 0 0
5.5708 0 0
5.5708 0 0
5.66772 0 0
5.66772 0 0
5.76465 0 0
5.76465 0 0
5.86157 0 0
5.86157 0 0
5.9585 0 0
5.9585 0 0
6.05542 0 0
6.05542 0 0
6.15234 0 0
6.15234 0 0
6.24927 0 0
6.24927 0 0
6.34619 0 0
6.34619 0 0
6.44312 0 0
6.44312 0 0
6.54004 0 0
6.54004 0 0
6.63696 0 0
6.63696 0 0
6.73389 0 0
6.73389 0 0
6.83081 0 0
6.83081 0 0
6.92773 0 0
6.92773 0 0
7.02466 0 0
7.02466 0 0
7.12158 0 0
7.12158 0 0
7.21851 0 0
7.21851 0 0
7.31543 0 0
7.31543 0 0
7.41235 0 0
7.41235 0 0
7.50928 0 0
7.50928 0 0
7.6062 0 0
7.6062 0 0
7.70312 0 0
7.70312 0 0
7.80005 0 0
7.80005 0 0
7.89697 0 0
7.89697 0 0
7.9939 0 0
7.9939 0 0
8.09082 0 0
8.09082 0 0
8.18774 0 0
8.18774 0 0
8.28467 0 0
8.28467 0 0
8.38159 0 0
8.38159 0 0
8.47852 0 0
8.47852 0 0
8.57544 0 0
8.57544 0 0
8.67236 0 0
8.67236 0 0
8.76929 0 0
8.76929 0 0
8.86621 0 0
8.86621 0 0
8.96313 0 0
8.96313 0 0
9.06006 0 0
9.06006 0 0
9.15698 0 0
9.15698 0 0
9.25391 0 0
9.25391 0 0
9.35083 0 0
9.35083 0 0
9.44775 0 0
9.44775 0 0
9.54468 0 0
9.54468 0 0
9.6416 0 0
9.6416 0 0
9.73853 0 0
9.73853 0 0
9.83545 0 0
9.83545 0 0
9.93237 0 0
9.93237 0 0
10.0293 0 0
10.0293 0 0
10.1262 0 0
10.1262 0 0
10.2231 0 0
10.2231 0 0
10.3201 0 0
10.3201 0 0
10.417 0 0
10.417 0 0
10.5139 0 0
10.5139 0 0
10.6108 0 0
10.6108 0 0
10.7078 0 0
10.7078 0 0
10.8047 0 0
10.8047 0 0
10.9016 0 0
10.9016 0 0
10.9985 0 0
10.9985 0 0
11.0955 0 0
11.0955 0 0
11.1924 0 0
11.1924 0 0
11.2893 0 0
11.2893 0 0
11.3862 0 0
11.3862 0 0
11.4832 0 0
11.4832 0 0
11.5801 0 0
11.5801 0 0
11.677 0 0
11.677 0 0
11.7739 0 0
11.7739 0 0
11.8708 0 0
11.8708 0 0
11.9678 0 0
11.9678 0 0
12.0647 0 0
12.0647 0 0
12.1616 0 0
12.1616 0 0
12.2585 0 0
12.2585 0 0
12.3555 0 0
12.3555 0 0
12.4524 0 0
12.4524 0 0
12.5493 0 0
12.5493 0 0
12.6462 0 0
12.6462 0 0
12.7432 0 0
12.7432 0 0
12.8401 0 0
12.8401 0 0
12.937 0 0
12.937 0 0
13.0339 0 0
13.0339 0 0
13.1309 0 0
13.1309 0 0
13.2278 0 0
13.2278 0 0
13.3247 0 0
13.3247 0 0
13.4216 0 0
13.4216 0 0
13.5186 0 0
13.5186 0 0
13.6155 0 0
13.6155 0 0
13.7124 0 0
13.7124 0 0
13.8093 0 0
13.8093 0 0
13.9062 0 0
13.9062 0 0
14.0032 0 0
14.0032 0 0
14.1001 0 0
14.1001 0 0
14.197 0 0
14.197 0 0
14.2939 0 0
14.2939 0 0
14.3909 0 0
14.3909 0 0
14.4878 0 0
14.4878 0 0
14.5847 0 0
14.5847 0 0
14.6816 0 0
14.6816 0 0
14.7786 0 0
14.7786 0 0
14.8755 0 0
14.8755 0 0
14.9724 0 0
14.9724 0 0
15.0693 0 0
15.0693 0 0
15.1663 0 0
15.1663 0 0
15.2632 0 0
15.2632 0 0
15.3601 0 0
15.3601 0 0
15.457 0 0
15.457 0 0
15.554 0 0
15.554 0 0
15.6509 0 0
15.6509 0 0
15.7478 0 0
15.7478 0 0
15.8447 0 0
15.8447 0 0
15.9417 0 0
15.9417 0 0
16.0386 0 0
16.0386 0 0
16.1355 0 0
16.1355 0 0
16.2324 0 0
16.2324 0 0
16.3293 0 0
16.3293 0 0
16.4263 0 0
16.4263 0 0
16.5232 0 0
16.5232 0 0
16.6201 0 0
16.6201 0 0
16.717 0 0
16.717 0 0
16.814 0 0
16.814 0 0
16.9109 0 0
16.9109 0 0
17.0078 0 0
17.0078 0 0
17.1047 0 0
17.1047 0 0
17.2017 0 0
17.2017 0 0
17.2986 0 0
17.2986 0 0
17.3955 0 0
17.3955 0 0
17.4924 0 0
17.4924 0 0
17.5894 0 0
17.5894 0 0
17.6863 0 0
17.6863 0 0
17.7832 0 0
17.7832 0 0
17.8801 0 0
17.8801 0 0
17.9771 0 0
17.9771 0 0
18.074 0 0
18.074 0 0
18.1709 0 0
18.1709 0 0
18.2678 0 0
18.2678 0 0
18.3647 0 0
18.3647 0 0
18.4617 0 0
18.4617 0 0
18.5586 0 0
18.5586 0 0
18.6555 0 0
18.6555 0 0
18.7524 0 0
18.7524 0 0
18.8494 0 0
18.8494 0 0
18.9463 0 0
18.9463 0 0
19.0432 0 0
19.0432 0 0
19.1401 0 0
19.1401 0 0
19.2371 0 0
19.2371 0 0
19.334 0 0
19.334 0 0
19.4309 0 0
19.4309 0 0
19.5278 0 0
19.5278 0 0
19.6248 0 0
19.6248 0 0
19.7217 0 0
19.7217 0 0
19.8186 0 0
19.8186 0 0
19.9155 0 0
19.9155 0 0
20.0125 0 0
20.0125 0 0
20.1094 0 0
20.1094 0 0
20.2063 0 0
20.2063 0 0
20.3032 0 0
20.3032 0 0
20.4001 0 0
20.4001 0 0
20.4971 0 0
20.4971 0 0
20.594 0 0
20.594 0 0
20.6909 0 0
20.6909 0 0
20.7878 0 0
20.7878 0 0
20.8848 0 0
20.8848 0 0
20.9817 0 0
20.9817 0 0
21.0786 0 0
21.0786 0 0
21.1755 0 0
21.1755 0 0
21.2725 0 0
21.2725 0 0
21.3694 0 0
21.3694 0 0
21.4663 0 0
21.4663 0 0
21.5632 0 0
21.5632 0 0
21.6602 0 0
21.6602 0 0
21.7571 0 0
21.7571 0 0
21.854 0 0
21.854 0 0
21.9509 0 0
21.9509 0 0
22.0479 0 0
22.0479 0 0
22.1448 0 0
22.1448 0 0
22.2417 0 0
22.2417 0 0
22.3386 0 0
22.3386 0 0
22.4355 0 0
22.4355 0 0
22.5325 0 0
22.5325 0 0
22.6294 0 0
22.6294 0 0
22.7263 0 0
22.7263 0 0
22.8232 0 0
22.8232 0 0
22.9202 0 0
22.9202 0 0
23.0171 0 0
23.0171 0 0
23.114 0 0
23.114 0 0
23.2109 0 0
23.2109 0 0
23.3079 0 0
23.3079 0 0
23.4048 0 0
23.4048 0 0
23.5017 0 0
23.5017 0 0
23.5986 0 0
23.5986 0 0
23.6956 0 0
23.6956 0 0
23.7925 0 0
23.7925 0 0
23.8894 0 0
23.8894 0 0
23.9863 0 0
23.9863 0 0
24.0833 0 0
24.0833 0 0
24.1802 0 0
24.1802 0 0
24.2771 0 0
24.2771 0 0
24.374 0 0
24.374 0 0
24.4709 0 0
24.4709 0 0
24.5679 0 0
24.5679 0 0
24.6648 0 0
24.6648 0 0
24.7617 0 0
24.7617 0 0
24.8586 0 0
24.8586 0 0
24.9556 0 0
24.9556 0 0
25.0525 0 0
25.0525 0 0
25.1494 0 0
25.1494 0 0
25.2463 0 0
25.2463 0 0
25.3433 0 0
25.3433 0 0
25.4402 0 0
25.4402 0 0
25.5371 0 0
25.5371 0 0
25.634 0 0
25.634 0 0
25.731 0 0
25.731 0 0
25.8279 0 0
25.8279 0 0
25.9248 0 0
25.9248 0 0
26.0217 0 0
26.0217 0 0
26.1187 0 0
26.1187 0 0
26.2156 0 0
26.2156 0 0
26.3125 0 0
26.3125 0 0
26.4094 0 0
26.4094 0 0
26.5063 0 0
26.5063 0 0
26.6033 0 0
26.6033 0 0
26.7002 0 0
26.7002 0 0
26.7971 0 0
26.7971 0 0
26.894 0 0
26.894 0 0
26.991 0 0
26.991 0 0
27.0879 0 0
27.0879 0 0
27.1848 0 0
27.1848 0 0
27.2817 0 0
27.2817 0 0
27.3787 0 0
27.3787 0 0
27.4756 0 0
27.4756 0 0
27.5725 0 0
27.5725 0 0
27.6694 0 0
27.6694 0 0
27.7664 0 0
27.7664 0 0
27.8633 0 0
27.8633 0 0
27.9602 0 0
27.9602 0 0
28.0571 0 0
28.0571 0 0
28.1541 0 0
28.1541 0 0
28.251 0 0
28.251 0 0
28.3479 0 0
28.3479 0 0
28.4448 0 0
28.4448 0 0
28.5417 0 0
28.5417 0 0
28.6387 0 0
28.6387 0 0
28.7356 0 0
28.7356 0 0
28.8325 0 0
28.8325 0 0
28.9294 0 0
28.9294 0 0
29.0264 0 0
29.0264 0 0
29.1233 0 0
29.1233 0 0
29.2202 0 0
29.2202 0 0
29.3171 0 0
29.3171 0 0
29.4141 0 0
29.4141 0 0
29.511 0 0
29.511 0 0
29.6079 0 0
29.6079 0 0
29.7048 0 0
29.7048 0 0
29.8018 0 0
29.8018 0 0
29.8987 0 0
29.8987 0 0
29.9956 0 0
29.9956 0 0
30.0925 0 0
30.0925 0 0
30.1895 0 0
30.1895 0 0
30.2864 0 0
30.2864 0 0
30.3833 0 0
30.3833 0 0
30.4802 0 0
30.4802 0 0
30.5771 0 0
30.5771 0 0
30.6741 0 0
30.6741 0 0
30.771 0 0
30.771 0 0
30.8679 0 0
30.8679 0 0
30.9648 0 0
30.9648 0 0
31.0618 0 0
31.0618 0 0
31.1587 0 0
31.1587 0 0
31.2556 0 0
31.2556 0 0
31.3525 0 0
31.3525 0 0
31.4495 0 0
31.4495 0 0
31.5464 0 0
31.5464 0 0
31.6433 0 0
31.6433 0 0
31.7402 0 0
31.7402 0 0
31.8372 0 0
31.8372 0 0
31.9341 0 0
31.9341 0 0
32.031 0 0
32.031 0 0
32.1279 0 0
32.1279 0 0
32.2249 0 0
32.2249 0 0
32.3218 0 0
32.3218 0 0
32.4187 0 0
32.4187 0 0
32.5156 0 0
32.5156 0 0
32.6125 0 0
32.6125 0 0
32.7095 0 0
32.7095 0 0
32.8064 0 0
32.8064 0 0
32.9033 0 0
32.9033 0 0
33.0002 0 0
33.0002 0 0
33.0972 0 0
33.0972 0 0
33.1941 0 0
33.1941 0 0
33.291 0 0
33.291 0 0
33.3879 0 0
33.3879 0 0
33.4849 0 0
33.4849 0 0
33.5818 0 0
33.5818 0 0
33.6787 0 0
33.6787 0 0
33.7756 0 0
33.7756 0 0
33.8726 0 0
33.8726 0 0
33.9695 0 0
33.9695 0 0
34.0664 0 0
34.0664 0 0
34.1633 0 0
34.1633 0 0
34.2603 0 0
34.2603 0 0
34.3572 0 0
34.3572 0 0
34.4541 0 0
34.4541 0 0
34.551 0 0
34.551 0 0
34.6479 0 0
34.6479 0 0
34.7449 0 0
34.7449 0 0
34.8418 0 0
34.8418 0 0
34.9387 0 0
34.9387 0 0
35.0356 0 0
35.0356 0 0
35.1326 0 0
35.1326 0 0
35.2295 0 0
35.2295 0 0
35.3264 0 0
35.3264 0 0
35.4233 0 0
35.4233 0 0
35.5203 0 0
35.5203 0 0
35.6172 0 0
35.6172 0 0
35.7141 0 0
35.7141 0 0
35.811 0 0
35.811 0 0
35.908 0 0
35.908 0 0
36.0049 0 0
36.0049 0 0
36.1018 0 0
36.1018 0 0
36.1987 0 0
36.1987 0 0
36.2957 0 0
36.2957 0 0
36.3926 0 0
36.3926 0 0
36.4895 0 0
36.4895 0 0
36.5864 0 0
36.5864 0 0
36.6833 0 0
36.6833 0 0
36.7803 0 0
36.7803 0 0
36.8772 0 0
36.8772 0 0
36.9741 0 0
36.9741 0 0
37.071 0 0
37.071 0 0
37.168 0 0
37.168 0 0
37.2649 0 0
37.2649 0 0
37.3618 0 0
37.3618 0 0
37.4587 0 0
37.4587 0 0
37.5557 0 0
37.5557 0 0
37.6526 0 0
37.6526 0 0
37.7495 0 0
37.7495 0 0
37.8464 0 0
37.8464 0 0
37.9434 0 0
37.9434 0 0
38.0403 0 0
38.0403 0 0
38.1372 0 0
38.1372 0 0
38.2341 0 0
38.2341 0 0
38.3311 0 0
38.3311 0 0
38.428 0 0
38.428 0 0
38.5249 0 0
38.5249 0 0
38.6218 0 0
38.6218 0 0
38.7188 0 0
38.7188 0 0
38.8157 0 0
38.8157 0 0
38.9126 0 0
38.9126 0 0
39.0095 0 0
39.0095 0 0
39.1064 0 0
39.1064 0 0
39.2034 0 0
39.2034 0 0
39.3003 0 0
39.3003 0 0
39.3972 0 0
39.3972 0 0
39.4941 0 0
39.4941 0 0
39.5911 0 0
39.5911 0 0
39.688 0 0
39.688 0 0
39.7849 0 0
39.7849 0 0
39.8818 0 0
39.8818 0 0
39.9788 0 0
39.9788 0 0
40.0757 0 0
40.0757 0 0
40.1726 0 0
40.1726 0 0
40.2695 0 0
40.2695 0 0
40.3665 0 0
40.3665 0 0
40.4634 0 0
40.4634 0 0
40.5603 0 0
40.5603 0 0
40.6572 0 0
40.6572 0 0
40.7542 0 0
40.7542 0 0
40.8511 0 0
40.8511 0 0
40.948 0 0
40.948 0 0
41.0449 0 0
41.0449 0 0
41.1418 0 0
41.1418 0 0
41.2388 0 0
41.2388 0 0
41.3357 0 0
41.3357 0 0
41.4326 0 0
41.4326 0 0
41.5295 0 0
41.5295 0 0
[...]
POINT_DATA 4096
SCALARS solution_0 double 1
LOOKUP_TABLE default
2.36487e+12 2.31588e+12 2.31588e+12 2.27456e+12 2.27456e+12 2.23938e+12 2.23938e+12 2.20912e+12 2.20912e+12 2.18287e+12 2.18287e+12 2.1599e+12 2.1599e+12 2.13962e+12 2.13962e+12 2.12157e+12 2.12157e+12 2.10539e+12 2.10539e+12 2.09075e+12 2.09075e+12 2.07742e+12 2.07742e+12 2.06518e+12 2.06518e+12 2.05386e+12 2.05386e+12 2.04332e+12 2.04332e+12 2.03343e+12 2.03343e+12 2.02411e+12 2.02411e+12 2.01524e+12 2.01524e+12 2.00678e+12 2.00678e+12 1.99865e+12 1.99865e+12 1.9908e+12 1.9908e+12 1.98318e+12 1.98318e+12 1.97575e+12 1.97575e+12 1.96849e+12 1.96849e+12 1.96136e+12 1.96136e+12 1.95434e+12 1.95434e+12 1.94741e+12 1.94741e+12 1.94054e+12 1.94054e+12 1.93373e+12 1.93373e+12 1.92695e+12 1.92695e+12 1.9202e+12 1.9202e+12 1.91347e+12 1.91347e+12 1.90674e+12 1.90674e+12 1.90002e+12 1.90002e+12 1.89329e+12 1.89329e+12 1.88655e+12 1.88655e+12 1.87979e+12 1.87979e+12 1.87302e+12 1.87302e+12 1.86622e+12 1.86622e+12 1.8594e+12 1.8594e+12 1.85255e+12 1.85255e+12 1.84567e+12 1.84567e+12 1.83877e+12 1.83877e+12 1.83183e+12 1.83183e+12 1.82486e+12 1.82486e+12 1.81786e+12 1.81786e+12 1.81084e+12 1.81084e+12 1.80378e+12 1.80378e+12 1.79668e+12 1.79668e+12 1.78956e+12 1.78956e+12 1.78241e+12 1.78241e+12 1.77523e+12 1.77523e+12 1.76802e+12 1.76802e+12 1.76079e+12 1.76079e+12 1.75353e+12 1.75353e+12 1.74624e+12 1.74624e+12 1.73893e+12 1.73893e+12 1.73159e+12 1.73159e+12 1.72424e+12 1.72424e+12 1.71686e+12 1.71686e+12 1.70946e+12 1.70946e+12 1.70204e+12 1.70204e+12 1.69461e+12 1.69461e+12 1.68716e+12 1.68716e+12 1.67969e+12 1.67969e+12 1.67221e+12 1.67221e+12 1.66472e+12 1.66472e+12 1.65722e+12 1.65722e+12 1.64971e+12 1.64971e+12 1.64218e+12 1.64218e+12 1.63465e+12 1.63465e+12 1.62711e+12 1.62711e+12 1.61957e+12 1.61957e+12 1.61202e+12 1.61202e+12 1.60447e+12 1.60447e+12 1.59692e+12 1.59692e+12 1.58936e+12 1.58936e+12 1.58181e+12 1.58181e+12 1.57425e+12 1.57425e+12 1.5667e+12 1.5667e+12 1.55915e+12 1.55915e+12 1.5516e+12 1.5516e+12 1.54406e+12 1.54406e+12 1.53652e+12 1.53652e+12 1.52899e+12 1.52899e+12 1.52147e+12 1.52147e+12 1.51395e+12 1.51395e+12 1.50645e+12 1.50645e+12 1.49895e+12 1.49895e+12 1.49146e+12 1.49146e+12 1.48399e+12 1.48399e+12 1.47653e+12 1.47653e+12 1.46908e+12 1.46908e+12 1.46164e+12 1.46164e+12 1.45422e+12 1.45422e+12 1.44681e+12 1.44681e+12 1.43941e+12 1.43941e+12 1.43204e+12 1.43204e+12 1.42468e+12 1.42468e+12 1.41733e+12 1.41733e+12 1.41001e+12 1.41001e+12 1.4027e+12 1.4027e+12 1.39541e+12 1.39541e+12 1.38815e+12 1.38815e+12 1.3809e+12 1.3809e+12 1.37367e+12 1.37367e+12 1.36646e+12 1.36646e+12 1.35928e+12 1.35928e+12 1.35211e+12 1.35211e+12 1.34497e+12 1.34497e+12 1.33785e+12 1.33785e+12 1.33075e+12 1.33075e+12 1.32368e+12 1.32368e+12 1.31663e+12 1.31663e+12 1.3096e+12 1.3096e+12 1.3026e+12 1.3026e+12 1.29562e+12 1.29562e+12 1.28867e+12 1.28867e+12 1.28175e+12 1.28175e+12 1.27484e+12 1.27484e+12 1.26797e+12 1.26797e+12 1.26112e+12 1.26112e+12 1.2543e+12 1.2543e+12 1.2475e+12 1.2475e+12 1.24073e+12 1.24073e+12 1.23399e+12 1.23399e+12 1.22727e+12 1.22727e+12 1.22059e+12 1.22059e+12 1.21393e+12 1.21393e+12 1.20729e+12 1.20729e+12 1.20069e+12 1.20069e+12 1.19411e+12 1.19411e+12 1.18757e+12 1.18757e+12 1.18105e+12 1.18105e+12 1.17456e+12 1.17456e+12 1.16809e+12 1.16809e+12 1.16166e+12 1.16166e+12 1.15526e+12 1.15526e+12 1.14888e+12 1.14888e+12 1.14253e+12 1.14253e+12 1.13622e+12 1.13622e+12 1.12993e+12 1.12993e+12 1.12367e+12 1.12367e+12 1.11744e+12 1.11744e+12 1.11124e+12 1.11124e+12 1.10507e+12 1.10507e+12 1.09893e+12 1.09893e+12 1.09282e+12 1.09282e+12 1.08674e+12 1.08674e+12 1.08069e+12 1.08069e+12 1.07467e+12 1.07467e+12 1.06867e+12 1.06867e+12 1.06271e+12 1.06271e+12 1.05678e+12 1.05678e+12 1.05088e+12 1.05088e+12 1.045e+12 1.045e+12 1.03916e+12 1.03916e+12 1.03334e+12 1.03334e+12 1.02756e+12 1.02756e+12 1.02181e+12 1.02181e+12 1.01608e+12 1.01608e+12 1.01039e+12 1.01039e+12 1.00472e+12 1.00472e+12 9.99087e+11 9.99087e+11 9.93481e+11 9.93481e+11 9.87904e+11 9.87904e+11 9.82357e+11 9.82357e+11 9.7684e+11 9.7684e+11 9.71351e+11 9.71351e+11 9.65892e+11 9.65892e+11 9.60463e+11 9.60463e+11 9.55062e+11 9.55062e+11 9.49691e+11 9.49691e+11 9.44349e+11 9.44349e+11 9.39036e+11 9.39036e+11 9.33752e+11 9.33752e+11 9.28496e+11 9.28496e+11 9.2327e+11 9.2327e+11 9.18072e+11 9.18072e+11 9.12903e+11 9.12903e+11 9.07762e+11 9.07762e+11 9.0265e+11 9.0265e+11 8.97566e+11 8.97566e+11 8.92511e+11 8.92511e+11 8.87483e+11 8.87483e+11 8.82484e+11 8.82484e+11 8.77513e+11 8.77513e+11 8.7257e+11 8.7257e+11 8.67655e+11 8.67655e+11 8.62767e+11 8.62767e+11 8.57907e+11 8.57907e+11 8.53075e+11 8.53075e+11 8.4827e+11 8.4827e+11 8.43492e+11 8.43492e+11 8.38742e+11 8.38742e+11 8.34018e+11 8.34018e+11 8.29322e+11 8.29322e+11 8.24653e+11 8.24653e+11 8.2001e+11 8.2001e+11 8.15394e+11 8.15394e+11 8.10805e+11 8.10805e+11 8.06242e+11 8.06242e+11 8.01705e+11 8.01705e+11 7.97195e+11 7.97195e+11 7.92711e+11 7.92711e+11 7.88253e+11 7.88253e+11 7.8382e+11 7.8382e+11 7.79414e+11 7.79414e+11 7.75033e+11 7.75033e+11 7.70678e+11 7.70678e+11 7.66348e+11 7.66348e+11 7.62043e+11 7.62043e+11 7.57763e+11 7.57763e+11 7.53509e+11 7.53509e+11 7.4928e+11 7.4928e+11 7.45075e+11 7.45075e+11 7.40895e+11 7.40895e+11 7.3674e+11 7.3674e+11 7.32609e+11 7.32609e+11 7.28502e+11 7.28502e+11 7.2442e+11 7.2442e+11 7.20361e+11 7.20361e+11 7.16327e+11 7.16327e+11 7.12316e+11 7.12316e+11 7.0833e+11 7.0833e+11 7.04366e+11 7.04366e+11 7.00427e+11 7.00427e+11 6.9651e+11 6.9651e+11 6.92617e+11 6.92617e+11 6.88747e+11 6.88747e+11 6.849e+11 6.849e+11 6.81076e+11 6.81076e+11 6.77274e+11 6.77274e+11 6.73495e+11 6.73495e+11 6.69739e+11 6.69739e+11 6.66005e+11 6.66005e+11 6.62293e+11 6.62293e+11 6.58603e+11 6.58603e+11 6.54935e+11 6.54935e+11 6.5129e+11 6.5129e+11 6.47665e+11 6.47665e+11 6.44063e+11 6.44063e+11 6.40482e+11 6.40482e+11 6.36922e+11 6.36922e+11 6.33384e+11 6.33384e+11 6.29867e+11 6.29867e+11 6.2637e+11 6.2637e+11 6.22895e+11 6.22895e+11 6.19441e+11 6.19441e+11 6.16007e+11 6.16007e+11 6.12593e+11 6.12593e+11 6.092e+11 6.092e+11 6.05828e+11 6.05828e+11 6.02475e+11 6.02475e+11 5.99143e+11 5.99143e+11 5.9583e+11 5.9583e+11 5.92537e+11 5.92537e+11 5.89264e+11 5.89264e+11 5.86011e+11 5.86011e+11 5.82777e+11 5.82777e+11 5.79563e+11 5.79563e+11 5.76367e+11 5.76367e+11 5.73191e+11 5.73191e+11 5.70034e+11 5.70034e+11 5.66895e+11 5.66895e+11 5.63776e+11 5.63776e+11 5.60675e+11 5.60675e+11 5.57592e+11 5.57592e+11 5.54528e+11 5.54528e+11 5.51483e+11 5.51483e+11 5.48455e+11 5.48455e+11 5.45446e+11 5.45446e+11 5.42455e+11 5.42455e+11 5.39481e+11 5.39481e+11 5.36526e+11 5.36526e+11 5.33588e+11 5.33588e+11 5.30667e+11 5.30667e+11 5.27764e+11 5.27764e+11 5.24878e+11 5.24878e+11 5.2201e+11 5.2201e+11 5.19158e+11 5.19158e+11 5.16324e+11 5.16324e+11 5.13506e+11 5.13506e+11 5.10706e+11 5.10706e+11 5.07921e+11 5.07921e+11 5.05154e+11 5.05154e+11 5.02403e+11 5.02403e+11 4.99668e+11 4.99668e+11 4.9695e+11 4.9695e+11 4.94248e+11 4.94248e+11 4.91562e+11 4.91562e+11 4.88892e+11 4.88892e+11 4.86237e+11 4.86237e+11 4.83599e+11 4.83599e+11 4.80976e+11 4.80976e+11 4.78368e+11 4.78368e+11 4.75777e+11 4.75777e+11 4.732e+11 4.732e+11 4.70639e+11 4.70639e+11 4.68093e+11 4.68093e+11 4.65562e+11 4.65562e+11 4.63046e+11 4.63046e+11 4.60545e+11 4.60545e+11 4.58058e+11 4.58058e+11 4.55586e+11 4.55586e+11 4.53129e+11 4.53129e+11 4.50687e+11 4.50687e+11 4.48258e+11 4.48258e+11 4.45845e+11 4.45845e+11 4.43445e+11 4.43445e+11 4.41059e+11 4.41059e+11 4.38688e+11 4.38688e+11 4.3633e+11 4.3633e+11 4.33986e+11 4.33986e+11 4.31656e+11 4.31656e+11 4.2934e+11 4.2934e+11 4.27037e+11 4.27037e+11 4.24748e+11 4.24748e+11 4.22472e+11 4.22472e+11 4.2021e+11 4.2021e+11 4.17961e+11 4.17961e+11 4.15724e+11 4.15724e+11 4.13501e+11 4.13501e+11 4.11291e+11 4.11291e+11 4.09094e+11 4.09094e+11 4.0691e+11 4.0691e+11 4.04738e+11 4.04738e+11 4.02579e+11 4.02579e+11 4.00433e+11 4.00433e+11 3.98299e+11 3.98299e+11 3.96177e+11 3.96177e+11 3.94068e+11 3.94068e+11 3.91971e+11 3.91971e+11 3.89886e+11 3.89886e+11 3.87813e+11 3.87813e+11 3.85752e+11 3.85752e+11 3.83703e+11 3.83703e+11 3.81666e+11 3.81666e+11 3.79641e+11 3.79641e+11 3.77627e+11 3.77627e+11 3.75625e+11 3.75625e+11 3.73635e+11 3.73635e+11 3.71656e+11 3.71656e+11 3.69688e+11 3.69688e+11 3.67732e+11 3.67732e+11 3.65787e+11 3.65787e+11 3.63853e+11 3.63853e+11 3.6193e+11 3.6193e+11 3.60018e+11 3.60018e+11 3.58117e+11 3.58117e+11 3.56227e+11 3.56227e+11 3.54348e+11 3.54348e+11 3.5248e+11 3.5248e+11 3.50622e+11 3.50622e+11 3.48775e+11 3.48775e+11 3.46938e+11 3.46938e+11 3.45112e+11 3.45112e+11 3.43296e+11 3.43296e+11 3.4149e+11 3.4149e+11 3.39695e+11 3.39695e+11 3.3791e+11 3.3791e+11 3.36135e+11 3.36135e+11 3.3437e+11 3.3437e+11 3.32615e+11 3.32615e+11 3.3087e+11 3.3087e+11 3.29134e+11 3.29134e+11 3.27409e+11 3.27409e+11 3.25693e+11 3.25693e+11 3.23987e+11 3.23987e+11 3.2229e+11 3.2229e+11 3.20603e+11 3.20603e+11 3.18926e+11 3.18926e+11 3.17258e+11 3.17258e+11 3.15599e+11 3.15599e+11 3.1395e+11 3.1395e+11 3.12309e+11 3.12309e+11 3.10678e+11 3.10678e+11 3.09056e+11 3.09056e+11 3.07443e+11 3.07443e+11 3.05839e+11 3.05839e+11 3.04244e+11 3.04244e+11 3.02658e+11 3.02658e+11 3.01081e+11 3.01081e+11 2.99512e+11 2.99512e+11 2.97952e+11 2.97952e+11 2.96401e+11 2.96401e+11 2.94858e+11 2.94858e+11 2.93324e+11 2.93324e+11 2.91798e+11 2.91798e+11 2.90281e+11 2.90281e+11 2.88772e+11 2.88772e+11 2.87272e+11 2.87272e+11 2.85779e+11 2.85779e+11 2.84295e+11 2.84295e+11 2.82819e+11 2.82819e+11 2.81351e+11 2.81351e+11 2.79891e+11 2.79891e+11 2.78439e+11 2.78439e+11 2.76995e+11 2.76995e+11 2.75559e+11 2.75559e+11 2.74131e+11 2.74131e+11 2.72711e+11 2.72711e+11 2.71298e+11 2.71298e+11 2.69893e+11 2.69893e+11 2.68495e+11 2.68495e+11 2.67106e+11 2.67106e+11 2.65723e+11 2.65723e+11 2.64348e+11 2.64348e+11 2.62981e+11 2.62981e+11 2.61621e+11 2.61621e+11 2.60268e+11 2.60268e+11 2.58923e+11 2.58923e+11 2.57585e+11 2.57585e+11 2.56254e+11 2.56254e+11 2.5493e+11 2.5493e+11 2.53614e+11 2.53614e+11 2.52304e+11 2.52304e+11 2.51002e+11 2.51002e+11 2.49706e+11 2.49706e+11 2.48417e+11 2.48417e+11 2.47136e+11 2.47136e+11 2.45861e+11 2.45861e+11 2.44592e+11 2.44592e+11 2.43331e+11 2.43331e+11 2.42076e+11 2.42076e+11 2.40828e+11 2.40828e+11 2.39587e+11 2.39587e+11 2.38352e+11 2.38352e+11 2.37124e+11 2.37124e+11 2.35902e+11 2.35902e+11 2.34687e+11 2.34687e+11 2.33478e+11 2.33478e+11 2.32275e+11 2.32275e+11 2.31079e+11 2.31079e+11 2.29889e+11 2.29889e+11 2.28706e+11 2.28706e+11 2.27528e+11 2.27528e+11 2.26357e+11 2.26357e+11 2.25192e+11 2.25192e+11 2.24033e+11 2.24033e+11 2.2288e+11 2.2288e+11 2.21733e+11 2.21733e+11 2.20592e+11 2.20592e+11 2.19457e+11 2.19457e+11 2.18328e+11 2.18328e+11 2.17204e+11 2.17204e+11 2.16087e+11 2.16087e+11 2.14975e+11 2.14975e+11 2.1387e+11 2.1387e+11 2.12769e+11 2.12769e+11 2.11675e+11 2.11675e+11 2.10586e+11 2.10586e+11 2.09503e+11 2.09503e+11 2.08425e+11 2.08425e+11 2.07353e+11 2.07353e+11 2.06287e+11 2.06287e+11 2.05226e+11 2.05226e+11 2.0417e+11 2.0417e+11 2.0312e+11 2.0312e+11 2.02075e+11 2.02075e+11 2.01035e+11 2.01035e+11 2.00001e+11 2.00001e+11 1.98972e+11 1.98972e+11 1.97948e+11 1.97948e+11 1.9693e+11 1.9693e+11 1.95917e+11 1.95917e+11 1.94909e+11 1.94909e+11 1.93905e+11 1.93905e+11 1.92907e+11 1.92907e+11 1.91915e+11 1.91915e+11 1.90927e+11 1.90927e+11 1.89944e+11 1.89944e+11 1.88966e+11 1.88966e+11 1.87993e+11 1.87993e+11 1.87025e+11 1.87025e+11 1.86061e+11 1.86061e+11 1.85103e+11 1.85103e+11 1.84149e+11 1.84149e+11 1.832e+11 1.832e+11 1.82256e+11 1.82256e+11 1.81317e+11 1.81317e+11 1.80382e+11 1.80382e+11 1.79452e+11 1.79452e+11 1.78527e+11 1.78527e+11 1.77606e+11 1.77606e+11 1.7669e+11 1.7669e+11 1.75778e+11 1.75778e+11 1.74871e+11 1.74871e+11 1.73968e+11 1.73968e+11 1.7307e+11 1.7307e+11 1.72176e+11 1.72176e+11 1.71287e+11 1.71287e+11 1.70402e+11 1.70402e+11 1.69521e+11 1.69521e+11 1.68645e+11 1.68645e+11 1.67773e+11 1.67773e+11 1.66905e+11 1.66905e+11 1.66042e+11 1.66042e+11 1.65183e+11 1.65183e+11 1.64328e+11 1.64328e+11 1.63477e+11 1.63477e+11 1.6263e+11 1.6263e+11 1.61788e+11 1.61788e+11 1.60949e+11 1.60949e+11 1.60115e+11 1.60115e+11 1.59284e+11 1.59284e+11 1.58458e+11 1.58458e+11 1.57636e+11 1.57636e+11 1.56818e+11 1.56818e+11 1.56003e+11 1.56003e+11 1.55193e+11 1.55193e+11 1.54386e+11 1.54386e+11 1.53584e+11 1.53584e+11 1.52785e+11 1.52785e+11 1.5199e+11 1.5199e+11 1.51199e+11 1.51199e+11 1.50412e+11 1.50412e+11 1.49628e+11 1.49628e+11 1.48848e+11 1.48848e+11 1.48072e+11 1.48072e+11 1.473e+11 1.473e+11 1.46531e+11 1.46531e+11 1.45766e+11 1.45766e+11 1.45005e+11 1.45005e+11 1.44247e+11 1.44247e+11 1.43493e+11 1.43493e+11 1.42742e+11 1.42742e+11 1.41995e+11 1.41995e+11 1.41252e+11 1.41252e+11 1.40512e+11 1.40512e+11 1.39775e+11 1.39775e+11 1.39042e+11 1.39042e+11 1.38313e+11 1.38313e+11 1.37587e+11 1.37587e+11 1.36864e+11 1.36864e+11 1.36145e+11 1.36145e+11 1.35429e+11 1.35429e+11 1.34716e+11 1.34716e+11 1.34007e+11 1.34007e+11 1.33301e+11 1.33301e+11 1.32598e+11 1.32598e+11 1.31899e+11 1.31899e+11 1.31203e+11 1.31203e+11 1.3051e+11 1.3051e+11 1.29821e+11 1.29821e+11 1.29134e+11 1.29134e+11 1.28451e+11 1.28451e+11 1.27771e+11 1.27771e+11 1.27094e+11 1.27094e+11 1.2642e+11 1.2642e+11 1.25749e+11 1.25749e+11 1.25082e+11 1.25082e+11 1.24417e+11 1.24417e+11 1.23756e+11 1.23756e+11 1.23097e+11 1.23097e+11 1.22442e+11 1.22442e+11 1.2179e+11 1.2179e+11 1.2114e+11 1.2114e+11 1.20494e+11 1.20494e+11 1.1985e+11 1.1985e+11 1.1921e+11 1.1921e+11 1.18572e+11 1.18572e+11 1.17937e+11 1.17937e+11 1.17306e+11 1.17306e+11 1.16677e+11 1.16677e+11 1.16051e+11 1.16051e+11 1.15427e+11 1.15427e+11 1.14807e+11 1.14807e+11 1.14189e+11 1.14189e+11 1.13574e+11 1.13574e+11 1.12962e+11 1.12962e+11 1.12353e+11 1.12353e+11 1.11746e+11 1.11746e+11 1.11143e+11 1.11143e+11 1.10542e+11 1.10542e+11 1.09943e+11 1.09943e+11 1.09347e+11 1.09347e+11 1.08754e+11 1.08754e+11 1.08164e+11 1.08164e+11 1.07576e+11 1.07576e+11 1.06991e+11 1.06991e+11 1.06409e+11 1.06409e+11 1.05829e+11 1.05829e+11 1.05251e+11 1.05251e+11 1.04677e+11 1.04677e+11 1.04104e+11 1.04104e+11 1.03535e+11 1.03535e+11 1.02968e+11 1.02968e+11 1.02403e+11 1.02403e+11 1.01841e+11 1.01841e+11 1.01281e+11 1.01281e+11 1.00724e+11 1.00724e+11 1.00169e+11 1.00169e+11 9.9617e+10 9.9617e+10 9.90671e+10 9.90671e+10 9.85197e+10 9.85197e+10 9.79747e+10 9.79747e+10 9.7432e+10 9.7432e+10 9.68918e+10 9.68918e+10 9.63539e+10 9.63539e+10 9.58183e+10 9.58183e+10 9.52851e+10 9.52851e+10 9.47542e+10 9.47542e+10 9.42257e+10 9.42257e+10 9.36994e+10 9.36994e+10 9.31754e+10 9.31754e+10 9.26537e+10 9.26537e+10 9.21343e+10 9.21343e+10 9.16171e+10 9.16171e+10 9.11022e+10 9.11022e+10 9.05895e+10 9.05895e+10 9.0079e+10 9.0079e+10 8.95707e+10 8.95707e+10 8.90646e+10 8.90646e+10 8.85606e+10 8.85606e+10 8.80589e+10 8.80589e+10 8.75593e+10 8.75593e+10 8.70618e+10 8.70618e+10 8.65665e+10 8.65665e+10 8.60733e+10 8.60733e+10 8.55823e+10 8.55823e+10 8.50933e+10 8.50933e+10 8.46064e+10 8.46064e+10 8.41216e+10 8.41216e+10 8.36388e+10 8.36388e+10 8.31581e+10 8.31581e+10 8.26795e+10 8.26795e+10 8.22029e+10 8.22029e+10 8.17283e+10 8.17283e+10 8.12557e+10 8.12557e+10 8.07851e+10 8.07851e+10 8.03166e+10 8.03166e+10 7.985e+10 7.985e+10 7.93853e+10 7.93853e+10 7.89227e+10 7.89227e+10 7.8462e+10 7.8462e+10 7.80032e+10 7.80032e+10 7.75463e+10 7.75463e+10 7.70914e+10 7.70914e+10 7.66384e+10 7.66384e+10 7.61873e+10 7.61873e+10 7.57381e+10 7.57381e+10 7.52907e+10 7.52907e+10 7.48453e+10 7.48453e+10 7.44016e+10 7.44016e+10 7.39599e+10 7.39599e+10 7.352e+10 7.352e+10 7.30819e+10 7.30819e+10 7.26456e+10 7.26456e+10 7.22112e+10 7.22112e+10 7.17785e+10 7.17785e+10 7.13477e+10 7.13477e+10 7.09186e+10 7.09186e+10 7.04913e+10 7.04913e+10 7.00658e+10 7.00658e+10 6.9642e+10 6.9642e+10 6.922e+10 6.922e+10 6.87998e+10 6.87998e+10 6.83812e+10 6.83812e+10 6.79644e+10 6.79644e+10 6.75493e+10 6.75493e+10 6.71359e+10 6.71359e+10 6.67242e+10 6.67242e+10 6.63142e+10 6.63142e+10 6.59058e+10 6.59058e+10 6.54992e+10 6.54992e+10 6.50942e+10 6.50942e+10 6.46908e+10 6.46908e+10 6.42891e+10 6.42891e+10 6.38891e+10 6.38891e+10 6.34906e+10 6.34906e+10 6.30938e+10 6.30938e+10 6.26986e+10 6.26986e+10 6.2305e+10 6.2305e+10 6.1913e+10 6.1913e+10 6.15226e+10 6.15226e+10 6.11338e+10 6.11338e+10 6.07465e+10 6.07465e+10 6.03608e+10 6.03608e+10 5.99767e+10 5.99767e+10 5.95941e+10 5.95941e+10 5.92131e+10 5.92131e+10 5.88336e+10 5.88336e+10 5.84556e+10 5.84556e+10 5.80791e+10 5.80791e+10 5.77041e+10 5.77041e+10 5.73307e+10 5.73307e+10 5.69587e+10 5.69587e+10 5.65883e+10 5.65883e+10 5.62193e+10 5.62193e+10 5.58518e+10 5.58518e+10 5.54857e+10 5.54857e+10 5.51212e+10 5.51212e+10 5.4758e+10 5.4758e+10 5.43963e+10 5.43963e+10 5.40361e+10 5.40361e+10 5.36773e+10 5.36773e+10 5.33199e+10 5.33199e+10 5.29639e+10 5.29639e+10 5.26094e+10 5.26094e+10 5.22562e+10 5.22562e+10 5.19044e+10 5.19044e+10 5.15541e+10 5.15541e+10 5.12051e+10 5.12051e+10 5.08575e+10 5.08575e+10 5.05112e+10 5.05112e+10 5.01663e+10 5.01663e+10 4.98228e+10 4.98228e+10 4.94807e+10 4.94807e+10 4.91398e+10 4.91398e+10 4.88003e+10 4.88003e+10 4.84622e+10 4.84622e+10 4.81253e+10 4.81253e+10 4.77898e+10 4.77898e+10 4.74556e+10 4.74556e+10 4.71227e+10 4.71227e+10 4.67911e+10 4.67911e+10 4.64608e+10 4.64608e+10 4.61318e+10 4.61318e+10 4.5804e+10 4.5804e+10 4.54775e+10 4.54775e+10 4.51523e+10 4.51523e+10 4.48284e+10 4.48284e+10 4.45057e+10 4.45057e+10 4.41843e+10 4.41843e+10 4.38641e+10 4.38641e+10 4.35452e+10 4.35452e+10 4.32274e+10 4.32274e+10 4.29109e+10 4.29109e+10 4.25957e+10 4.25957e+10 4.22816e+10 4.22816e+10 4.19688e+10 4.19688e+10 4.16571e+10 4.16571e+10 4.13467e+10 4.13467e+10 4.10374e+10 4.10374e+10 4.07294e+10 4.07294e+10 4.04225e+10 4.04225e+10 4.01168e+10 4.01168e+10 3.98122e+10 3.98122e+10 3.95089e+10 3.95089e+10 3.92066e+10 3.92066e+10 3.89056e+10 3.89056e+10 3.86057e+10 3.86057e+10 3.83069e+10 3.83069e+10 3.80093e+10 3.80093e+10 3.77128e+10 3.77128e+10 3.74174e+10 3.74174e+10 3.71231e+10 3.71231e+10 3.683e+10 3.683e+10 3.6538e+10 3.6538e+10 3.62471e+10 3.62471e+10 3.59573e+10 3.59573e+10 3.56685e+10 3.56685e+10 3.53809e+10 3.53809e+10 3.50944e+10 3.50944e+10 3.48089e+10 3.48089e+10 3.45245e+10 3.45245e+10 3.42412e+10 3.42412e+10 3.3959e+10 3.3959e+10 3.36778e+10 3.36778e+10 3.33977e+10 3.33977e+10 3.31186e+10 3.31186e+10 3.28405e+10 3.28405e+10 3.25636e+10 3.25636e+10 3.22876e+10 3.22876e+10 3.20127e+10 3.20127e+10 3.17388e+10 3.17388e+10 3.14659e+10 3.14659e+10 3.11941e+10 3.11941e+10 3.09233e+10 3.09233e+10 3.06534e+10 3.06534e+10 3.03846e+10 3.03846e+10 3.01168e+10 3.01168e+10 2.985e+10 2.985e+10 2.95841e+10 2.95841e+10 2.93193e+10 2.93193e+10 2.90554e+10 2.90554e+10 2.87925e+10 2.87925e+10 2.85306e+10 2.85306e+10 2.82697e+10 2.82697e+10 2.80097e+10 2.80097e+10 2.77507e+10 2.77507e+10 2.74926e+10 2.74926e+10 2.72355e+10 2.72355e+10 2.69794e+10 2.69794e+10 2.67242e+10 2.67242e+10 2.64699e+10 2.64699e+10 2.62165e+10 2.62165e+10 2.59641e+10 2.59641e+10 2.57126e+10 2.57126e+10 2.54621e+10 2.54621e+10 2.52124e+10 2.52124e+10 2.49637e+10 2.49637e+10 2.47159e+10 2.47159e+10 2.4469e+10 2.4469e+10 2.4223e+10 2.4223e+10 2.39779e+10 2.39779e+10 2.37336e+10 2.37336e+10 2.34903e+10 2.34903e+10 2.32479e+10 2.32479e+10 2.30063e+10 2.30063e+10 2.27656e+10 2.27656e+10 2.25258e+10 2.25258e+10 2.22869e+10 2.22869e+10 2.20488e+10 2.20488e+10 2.18117e+10 2.18117e+10 2.15753e+10 2.15753e+10 2.13398e+10 2.13398e+10 2.11052e+10 2.11052e+10 2.08714e+10 2.08714e+10 2.06385e+10 2.06385e+10 2.04064e+10 2.04064e+10 2.01751e+10 2.01751e+10 1.99447e+10 1.99447e+10 1.97151e+10 1.97151e+10 1.94863e+10 1.94863e+10 1.92584e+10 1.92584e+10 1.90313e+10 1.90313e+10 1.88049e+10 1.88049e+10 1.85794e+10 1.85794e+10 1.83548e+10 1.83548e+10 1.81309e+10 1.81309e+10 1.79078e+10 1.79078e+10 1.76855e+10 1.76855e+10 1.7464e+10 1.7464e+10 1.72433e+10 1.72433e+10 1.70234e+10 1.70234e+10 1.68043e+10 1.68043e+10 1.6586e+10 1.6586e+10 1.63684e+10 1.63684e+10 1.61516e+10 1.61516e+10 1.59356e+10 1.59356e+10 1.57204e+10 1.57204e+10 1.55059e+10 1.55059e+10 1.52922e+10 1.52922e+10 1.50792e+10 1.50792e+10 1.4867e+10 1.4867e+10 1.46555e+10 1.46555e+10 1.44448e+10 1.44448e+10 1