# vtk DataFile Version 3.0
#This file was generated by the deal.II library on 2020/9/6 at 2:54:44
ASCII
DATASET UNSTRUCTURED_GRID

POINTS 4096 double
1.5 0 0
1.59692 0 0
1.59692 0 0
1.69385 0 0
1.69385 0 0
1.79077 0 0
1.79077 0 0
1.8877 0 0
1.8877 0 0
1.98462 0 0
1.98462 0 0
2.08154 0 0
2.08154 0 0
2.17847 0 0
2.17847 0 0
2.27539 0 0
2.27539 0 0
2.37231 0 0
2.37231 0 0
2.46924 0 0
2.46924 0 0
2.56616 0 0
2.56616 0 0
2.66309 0 0
2.66309 0 0
2.76001 0 0
2.76001 0 0
2.85693 0 0
2.85693 0 0
2.95386 0 0
2.95386 0 0
3.05078 0 0
3.05078 0 0
3.14771 0 0
3.14771 0 0
3.24463 0 0
3.24463 0 0
3.34155 0 0
3.34155 0 0
3.43848 0 0
3.43848 0 0
3.5354 0 0
3.5354 0 0
3.63232 0 0
3.63232 0 0
3.72925 0 0
3.72925 0 0
3.82617 0 0
3.82617 0 0
3.9231 0 0
3.9231 0 0
4.02002 0 0
4.02002 0 0
4.11694 0 0
4.11694 0 0
4.21387 0 0
4.21387 0 0
4.31079 0 0
4.31079 0 0
4.40771 0 0
4.40771 0 0
4.50464 0 0
4.50464 0 0
4.60156 0 0
4.60156 0 0
4.69849 0 0
4.69849 0 0
4.79541 0 0
4.79541 0 0
4.89233 0 0
4.89233 0 0
4.98926 0 0
4.98926 0 0
5.08618 0 0
5.08618 0 0
5.18311 0 0
5.18311 0 0
5.28003 0 0
5.28003 0 0
5.37695 0 0
5.37695 0 0
5.47388 0 0
5.47388 0 0
5.5708 0 0
5.5708 0 0
5.66772 0 0
5.66772 0 0
5.76465 0 0
5.76465 0 0
5.86157 0 0
5.86157 0 0
5.9585 0 0
5.9585 0 0
6.05542 0 0
6.05542 0 0
6.15234 0 0
6.15234 0 0
6.24927 0 0
6.24927 0 0
6.34619 0 0
6.34619 0 0
6.44312 0 0
6.44312 0 0
6.54004 0 0
6.54004 0 0
6.63696 0 0
6.63696 0 0
6.73389 0 0
6.73389 0 0
6.83081 0 0
6.83081 0 0
6.92773 0 0
6.92773 0 0
7.02466 0 0
7.02466 0 0
7.12158 0 0
7.12158 0 0
7.21851 0 0
7.21851 0 0
7.31543 0 0
7.31543 0 0
7.41235 0 0
7.41235 0 0
7.50928 0 0
7.50928 0 0
7.6062 0 0
7.6062 0 0
7.70312 0 0
7.70312 0 0
7.80005 0 0
7.80005 0 0
7.89697 0 0
7.89697 0 0
7.9939 0 0
7.9939 0 0
8.09082 0 0
8.09082 0 0
8.18774 0 0
8.18774 0 0
8.28467 0 0
8.28467 0 0
8.38159 0 0
8.38159 0 0
8.47852 0 0
8.47852 0 0
8.57544 0 0
8.57544 0 0
8.67236 0 0
8.67236 0 0
8.76929 0 0
8.76929 0 0
8.86621 0 0
8.86621 0 0
8.96313 0 0
8.96313 0 0
9.06006 0 0
9.06006 0 0
9.15698 0 0
9.15698 0 0
9.25391 0 0
9.25391 0 0
9.35083 0 0
9.35083 0 0
9.44775 0 0
9.44775 0 0
9.54468 0 0
9.54468 0 0
9.6416 0 0
9.6416 0 0
9.73853 0 0
9.73853 0 0
9.83545 0 0
9.83545 0 0
9.93237 0 0
9.93237 0 0
10.0293 0 0
10.0293 0 0
10.1262 0 0
10.1262 0 0
10.2231 0 0
10.2231 0 0
10.3201 0 0
10.3201 0 0
10.417 0 0
10.417 0 0
10.5139 0 0
10.5139 0 0
10.6108 0 0
10.6108 0 0
10.7078 0 0
10.7078 0 0
10.8047 0 0
10.8047 0 0
10.9016 0 0
10.9016 0 0
10.9985 0 0
10.9985 0 0
11.0955 0 0
11.0955 0 0
11.1924 0 0
11.1924 0 0
11.2893 0 0
11.2893 0 0
11.3862 0 0
11.3862 0 0
11.4832 0 0
11.4832 0 0
11.5801 0 0
11.5801 0 0
11.677 0 0
11.677 0 0
11.7739 0 0
11.7739 0 0
11.8708 0 0
11.8708 0 0
11.9678 0 0
11.9678 0 0
12.0647 0 0
12.0647 0 0
12.1616 0 0
12.1616 0 0
12.2585 0 0
12.2585 0 0
12.3555 0 0
12.3555 0 0
12.4524 0 0
12.4524 0 0
12.5493 0 0
12.5493 0 0
12.6462 0 0
12.6462 0 0
12.7432 0 0
12.7432 0 0
12.8401 0 0
12.8401 0 0
12.937 0 0
12.937 0 0
13.0339 0 0
13.0339 0 0
13.1309 0 0
13.1309 0 0
13.2278 0 0
13.2278 0 0
13.3247 0 0
13.3247 0 0
13.4216 0 0
13.4216 0 0
13.5186 0 0
13.5186 0 0
13.6155 0 0
13.6155 0 0
13.7124 0 0
13.7124 0 0
13.8093 0 0
13.8093 0 0
13.9062 0 0
13.9062 0 0
14.0032 0 0
14.0032 0 0
14.1001 0 0
14.1001 0 0
14.197 0 0
14.197 0 0
14.2939 0 0
14.2939 0 0
14.3909 0 0
14.3909 0 0
14.4878 0 0
14.4878 0 0
14.5847 0 0
14.5847 0 0
14.6816 0 0
14.6816 0 0
14.7786 0 0
14.7786 0 0
14.8755 0 0
14.8755 0 0
14.9724 0 0
14.9724 0 0
15.0693 0 0
15.0693 0 0
15.1663 0 0
15.1663 0 0
15.2632 0 0
15.2632 0 0
15.3601 0 0
15.3601 0 0
15.457 0 0
15.457 0 0
15.554 0 0
15.554 0 0
15.6509 0 0
15.6509 0 0
15.7478 0 0
15.7478 0 0
15.8447 0 0
15.8447 0 0
15.9417 0 0
15.9417 0 0
16.0386 0 0
16.0386 0 0
16.1355 0 0
16.1355 0 0
16.2324 0 0
16.2324 0 0
16.3293 0 0
16.3293 0 0
16.4263 0 0
16.4263 0 0
16.5232 0 0
16.5232 0 0
16.6201 0 0
16.6201 0 0
16.717 0 0
16.717 0 0
16.814 0 0
16.814 0 0
16.9109 0 0
16.9109 0 0
17.0078 0 0
17.0078 0 0
17.1047 0 0
17.1047 0 0
17.2017 0 0
17.2017 0 0
17.2986 0 0
17.2986 0 0
17.3955 0 0
17.3955 0 0
17.4924 0 0
17.4924 0 0
17.5894 0 0
17.5894 0 0
17.6863 0 0
17.6863 0 0
17.7832 0 0
17.7832 0 0
17.8801 0 0
17.8801 0 0
17.9771 0 0
17.9771 0 0
18.074 0 0
18.074 0 0
18.1709 0 0
18.1709 0 0
18.2678 0 0
18.2678 0 0
18.3647 0 0
18.3647 0 0
18.4617 0 0
18.4617 0 0
18.5586 0 0
18.5586 0 0
18.6555 0 0
18.6555 0 0
18.7524 0 0
18.7524 0 0
18.8494 0 0
18.8494 0 0
18.9463 0 0
18.9463 0 0
19.0432 0 0
19.0432 0 0
19.1401 0 0
19.1401 0 0
19.2371 0 0
19.2371 0 0
19.334 0 0
19.334 0 0
19.4309 0 0
19.4309 0 0
19.5278 0 0
19.5278 0 0
19.6248 0 0
19.6248 0 0
19.7217 0 0
19.7217 0 0
19.8186 0 0
19.8186 0 0
19.9155 0 0
19.9155 0 0
20.0125 0 0
20.0125 0 0
20.1094 0 0
20.1094 0 0
20.2063 0 0
20.2063 0 0
20.3032 0 0
20.3032 0 0
20.4001 0 0
20.4001 0 0
20.4971 0 0
20.4971 0 0
20.594 0 0
20.594 0 0
20.6909 0 0
20.6909 0 0
20.7878 0 0
20.7878 0 0
20.8848 0 0
20.8848 0 0
20.9817 0 0
20.9817 0 0
21.0786 0 0
21.0786 0 0
21.1755 0 0
21.1755 0 0
21.2725 0 0
21.2725 0 0
21.3694 0 0
21.3694 0 0
21.4663 0 0
21.4663 0 0
21.5632 0 0
21.5632 0 0
21.6602 0 0
21.6602 0 0
21.7571 0 0
21.7571 0 0
21.854 0 0
21.854 0 0
21.9509 0 0
21.9509 0 0
22.0479 0 0
22.0479 0 0
22.1448 0 0
22.1448 0 0
22.2417 0 0
22.2417 0 0
22.3386 0 0
22.3386 0 0
22.4355 0 0
22.4355 0 0
22.5325 0 0
22.5325 0 0
22.6294 0 0
22.6294 0 0
22.7263 0 0
22.7263 0 0
22.8232 0 0
22.8232 0 0
22.9202 0 0
22.9202 0 0
23.0171 0 0
23.0171 0 0
23.114 0 0
23.114 0 0
23.2109 0 0
23.2109 0 0
23.3079 0 0
23.3079 0 0
23.4048 0 0
23.4048 0 0
23.5017 0 0
23.5017 0 0
23.5986 0 0
23.5986 0 0
23.6956 0 0
23.6956 0 0
23.7925 0 0
23.7925 0 0
23.8894 0 0
23.8894 0 0
23.9863 0 0
23.9863 0 0
24.0833 0 0
24.0833 0 0
24.1802 0 0
24.1802 0 0
24.2771 0 0
24.2771 0 0
24.374 0 0
24.374 0 0
24.4709 0 0
24.4709 0 0
24.5679 0 0
24.5679 0 0
24.6648 0 0
24.6648 0 0
24.7617 0 0
24.7617 0 0
24.8586 0 0
24.8586 0 0
24.9556 0 0
24.9556 0 0
25.0525 0 0
25.0525 0 0
25.1494 0 0
25.1494 0 0
25.2463 0 0
25.2463 0 0
25.3433 0 0
25.3433 0 0
25.4402 0 0
25.4402 0 0
25.5371 0 0
25.5371 0 0
25.634 0 0
25.634 0 0
25.731 0 0
25.731 0 0
25.8279 0 0
25.8279 0 0
25.9248 0 0
25.9248 0 0
26.0217 0 0
26.0217 0 0
26.1187 0 0
26.1187 0 0
26.2156 0 0
26.2156 0 0
26.3125 0 0
26.3125 0 0
26.4094 0 0
26.4094 0 0
26.5063 0 0
26.5063 0 0
26.6033 0 0
26.6033 0 0
26.7002 0 0
26.7002 0 0
26.7971 0 0
26.7971 0 0
26.894 0 0
26.894 0 0
26.991 0 0
26.991 0 0
27.0879 0 0
27.0879 0 0
27.1848 0 0
27.1848 0 0
27.2817 0 0
27.2817 0 0
27.3787 0 0
27.3787 0 0
27.4756 0 0
27.4756 0 0
27.5725 0 0
27.5725 0 0
27.6694 0 0
27.6694 0 0
27.7664 0 0
27.7664 0 0
27.8633 0 0
27.8633 0 0
27.9602 0 0
27.9602 0 0
28.0571 0 0
28.0571 0 0
28.1541 0 0
28.1541 0 0
28.251 0 0
28.251 0 0
28.3479 0 0
28.3479 0 0
28.4448 0 0
28.4448 0 0
28.5417 0 0
28.5417 0 0
28.6387 0 0
28.6387 0 0
28.7356 0 0
28.7356 0 0
28.8325 0 0
28.8325 0 0
28.9294 0 0
28.9294 0 0
29.0264 0 0
29.0264 0 0
29.1233 0 0
29.1233 0 0
29.2202 0 0
29.2202 0 0
29.3171 0 0
29.3171 0 0
29.4141 0 0
29.4141 0 0
29.511 0 0
29.511 0 0
29.6079 0 0
29.6079 0 0
29.7048 0 0
29.7048 0 0
29.8018 0 0
29.8018 0 0
29.8987 0 0
29.8987 0 0
29.9956 0 0
29.9956 0 0
30.0925 0 0
30.0925 0 0
30.1895 0 0
30.1895 0 0
30.2864 0 0
30.2864 0 0
30.3833 0 0
30.3833 0 0
30.4802 0 0
30.4802 0 0
30.5771 0 0
30.5771 0 0
30.6741 0 0
30.6741 0 0
30.771 0 0
30.771 0 0
30.8679 0 0
30.8679 0 0
30.9648 0 0
30.9648 0 0
31.0618 0 0
31.0618 0 0
31.1587 0 0
31.1587 0 0
31.2556 0 0
31.2556 0 0
31.3525 0 0
31.3525 0 0
31.4495 0 0
31.4495 0 0
31.5464 0 0
31.5464 0 0
31.6433 0 0
31.6433 0 0
31.7402 0 0
31.7402 0 0
31.8372 0 0
31.8372 0 0
31.9341 0 0
31.9341 0 0
32.031 0 0
32.031 0 0
32.1279 0 0
32.1279 0 0
32.2249 0 0
32.2249 0 0
32.3218 0 0
32.3218 0 0
32.4187 0 0
32.4187 0 0
32.5156 0 0
32.5156 0 0
32.6125 0 0
32.6125 0 0
32.7095 0 0
32.7095 0 0
32.8064 0 0
32.8064 0 0
32.9033 0 0
32.9033 0 0
33.0002 0 0
33.0002 0 0
33.0972 0 0
33.0972 0 0
33.1941 0 0
33.1941 0 0
33.291 0 0
33.291 0 0
33.3879 0 0
33.3879 0 0
33.4849 0 0
33.4849 0 0
33.5818 0 0
33.5818 0 0
33.6787 0 0
33.6787 0 0
33.7756 0 0
33.7756 0 0
33.8726 0 0
33.8726 0 0
33.9695 0 0
33.9695 0 0
34.0664 0 0
34.0664 0 0
34.1633 0 0
34.1633 0 0
34.2603 0 0
34.2603 0 0
34.3572 0 0
34.3572 0 0
34.4541 0 0
34.4541 0 0
34.551 0 0
34.551 0 0
34.6479 0 0
34.6479 0 0
34.7449 0 0
34.7449 0 0
34.8418 0 0
34.8418 0 0
34.9387 0 0
34.9387 0 0
35.0356 0 0
35.0356 0 0
35.1326 0 0
35.1326 0 0
35.2295 0 0
35.2295 0 0
35.3264 0 0
35.3264 0 0
35.4233 0 0
35.4233 0 0
35.5203 0 0
35.5203 0 0
35.6172 0 0
35.6172 0 0
35.7141 0 0
35.7141 0 0
35.811 0 0
35.811 0 0
35.908 0 0
35.908 0 0
36.0049 0 0
36.0049 0 0
36.1018 0 0
36.1018 0 0
36.1987 0 0
36.1987 0 0
36.2957 0 0
36.2957 0 0
36.3926 0 0
36.3926 0 0
36.4895 0 0
36.4895 0 0
36.5864 0 0
36.5864 0 0
36.6833 0 0
36.6833 0 0
36.7803 0 0
36.7803 0 0
36.8772 0 0
36.8772 0 0
36.9741 0 0
36.9741 0 0
37.071 0 0
37.071 0 0
37.168 0 0
37.168 0 0
37.2649 0 0
37.2649 0 0
37.3618 0 0
37.3618 0 0
37.4587 0 0
37.4587 0 0
37.5557 0 0
37.5557 0 0
37.6526 0 0
37.6526 0 0
37.7495 0 0
37.7495 0 0
37.8464 0 0
37.8464 0 0
37.9434 0 0
37.9434 0 0
38.0403 0 0
38.0403 0 0
38.1372 0 0
38.1372 0 0
38.2341 0 0
38.2341 0 0
38.3311 0 0
38.3311 0 0
38.428 0 0
38.428 0 0
38.5249 0 0
38.5249 0 0
38.6218 0 0
38.6218 0 0
38.7188 0 0
38.7188 0 0
38.8157 0 0
38.8157 0 0
38.9126 0 0
38.9126 0 0
39.0095 0 0
39.0095 0 0
39.1064 0 0
39.1064 0 0
39.2034 0 0
39.2034 0 0
39.3003 0 0
39.3003 0 0
39.3972 0 0
39.3972 0 0
39.4941 0 0
39.4941 0 0
39.5911 0 0
39.5911 0 0
39.688 0 0
39.688 0 0
39.7849 0 0
39.7849 0 0
39.8818 0 0
39.8818 0 0
39.9788 0 0
39.9788 0 0
40.0757 0 0
40.0757 0 0
40.1726 0 0
40.1726 0 0
40.2695 0 0
40.2695 0 0
40.3665 0 0
40.3665 0 0
40.4634 0 0
40.4634 0 0
40.5603 0 0
40.5603 0 0
40.6572 0 0
40.6572 0 0
40.7542 0 0
40.7542 0 0
40.8511 0 0
40.8511 0 0
40.948 0 0
40.948 0 0
41.0449 0 0
41.0449 0 0
41.1418 0 0
41.1418 0 0
41.2388 0 0
41.2388 0 0
41.3357 0 0
41.3357 0 0
41.4326 0 0
41.4326 0 0
41.5295 0 0
41.5295 0 0
[...]
POINT_DATA 4096
SCALARS solution_0 double 1
LOOKUP_TABLE default
139310 136424 136424 133990 133990 131917 131917 130135 130135 128588 128588 127235 127235 126040 126040 124977 124977 124023 124023 123161 123161 122376 122376 121654 121654 120988 120988 120367 120367 119784 119784 119235 119235 118713 118713 118214 118214 117735 117735 117272 117272 116823 116823 116386 116386 115958 115958 115538 115538 115124 115124 114716 114716 114311 114311 113909 113909 113510 113510 113113 113113 112716 112716 112320 112320 111923 111923 111527 111527 111130 111130 110732 110732 110333 110333 109932 109932 109530 109530 109127 109127 108721 108721 108315 108315 107906 107906 107495 107495 107083 107083 106669 106669 106253 106253 105835 105835 105416 105416 104994 104994 104571 104571 104147 104147 103720 103720 103293 103293 102863 102863 102433 102433 102000 102000 101567 101567 101132 101132 100696 100696 100260 100260 99821.6 99821.6 99382.7 99382.7 98942.9 98942.9 98502.2 98502.2 98060.9 98060.9 97618.8 97618.8 97176.2 97176.2 96733 96733 96289.3 96289.3 95845.2 95845.2 95400.9 95400.9 94956.2 94956.2 94511.3 94511.3 94066.3 94066.3 93621.2 93621.2 93176.1 93176.1 92731 92731 92286 92286 91841.2 91841.2 91396.6 91396.6 90952.3 90952.3 90508.3 90508.3 90064.6 90064.6 89621.4 89621.4 89178.7 89178.7 88736.5 88736.5 88294.8 88294.8 87853.8 87853.8 87413.5 87413.5 86973.8 86973.8 86534.9 86534.9 86096.8 86096.8 85659.5 85659.5 85223.1 85223.1 84787.5 84787.5 84353 84353 83919.4 83919.4 83486.8 83486.8 83055.3 83055.3 82624.8 82624.8 82195.5 82195.5 81767.3 81767.3 81340.3 81340.3 80914.5 80914.5 80489.9 80489.9 80066.5 80066.5 79644.4 79644.4 79223.7 79223.7 78804.2 78804.2 78386.2 78386.2 77969.5 77969.5 77554.1 77554.1 77140.2 77140.2 76727.8 76727.8 76316.8 76316.8 75907.2 75907.2 75499.2 75499.2 75092.6 75092.6 74687.6 74687.6 74284.1 74284.1 73882.2 73882.2 73481.9 73481.9 73083.1 73083.1 72685.9 72685.9 72290.3 72290.3 71896.3 71896.3 71504 71504 71113.3 71113.3 70724.2 70724.2 70336.8 70336.8 69951.1 69951.1 69567 69567 69184.7 69184.7 68804 68804 68425 68425 68047.7 68047.7 67672.1 67672.1 67298.3 67298.3 66926.1 66926.1 66555.7 66555.7 66187 66187 65820.1 65820.1 65454.9 65454.9 65091.4 65091.4 64729.7 64729.7 64369.7 64369.7 64011.4 64011.4 63654.9 63654.9 63300.2 63300.2 62947.2 62947.2 62596 62596 62246.5 62246.5 61898.7 61898.7 61552.8 61552.8 61208.5 61208.5 60866.1 60866.1 60525.3 60525.3 60186.4 60186.4 59849.1 59849.1 59513.7 59513.7 59179.9 59179.9 58847.9 58847.9 58517.7 58517.7 58189.2 58189.2 57862.4 57862.4 57537.4 57537.4 57214.1 57214.1 56892.5 56892.5 56572.7 56572.7 56254.5 56254.5 55938.1 55938.1 55623.4 55623.4 55310.4 55310.4 54999.2 54999.2 54689.6 54689.6 54381.7 54381.7 54075.5 54075.5 53771 53771 53468.2 53468.2 53167 53167 52867.5 52867.5 52569.7 52569.7 52273.6 52273.6 51979.1 51979.1 51686.3 51686.3 51395.1 51395.1 51105.5 51105.5 50817.6 50817.6 50531.3 50531.3 50246.6 50246.6 49963.6 49963.6 49682.1 49682.1 49402.3 49402.3 49124.1 49124.1 48847.4 48847.4 48572.4 48572.4 48298.9 48298.9 48027 48027 47756.6 47756.6 47487.8 47487.8 47220.6 47220.6 46954.9 46954.9 46690.7 46690.7 46428.1 46428.1 46167 46167 45907.5 45907.5 45649.4 45649.4 45392.8 45392.8 45137.8 45137.8 44884.2 44884.2 44632.1 44632.1 44381.5 44381.5 44132.3 44132.3 43884.6 43884.6 43638.4 43638.4 43393.6 43393.6 43150.3 43150.3 42908.4 42908.4 42667.9 42667.9 42428.8 42428.8 42191.2 42191.2 41954.9 41954.9 41720.1 41720.1 41486.6 41486.6 41254.6 41254.6 41023.9 41023.9 40794.5 40794.5 40566.5 40566.5 40339.9 40339.9 40114.7 40114.7 39890.7 39890.7 39668.1 39668.1 39446.8 39446.8 39226.9 39226.9 39008.2 39008.2 38790.9 38790.9 38574.8 38574.8 38360.1 38360.1 38146.6 38146.6 37934.4 37934.4 37723.4 37723.4 37513.7 37513.7 37305.3 37305.3 37098.1 37098.1 36892.2 36892.2 36687.4 36687.4 36483.9 36483.9 36281.7 36281.7 36080.6 36080.6 35880.7 35880.7 35682.1 35682.1 35484.6 35484.6 35288.3 35288.3 35093.1 35093.1 34899.2 34899.2 34706.4 34706.4 34514.7 34514.7 34324.2 34324.2 34134.9 34134.9 33946.7 33946.7 33759.6 33759.6 33573.6 33573.6 33388.7 33388.7 33205 33205 33022.3 33022.3 32840.7 32840.7 32660.2 32660.2 32480.8 32480.8 32302.5 32302.5 32125.2 32125.2 31949 31949 31773.9 31773.9 31599.8 31599.8 31426.7 31426.7 31254.7 31254.7 31083.7 31083.7 30913.7 30913.7 30744.7 30744.7 30576.7 30576.7 30409.8 30409.8 30243.8 30243.8 30078.8 30078.8 29914.8 29914.8 29751.8 29751.8 29589.8 29589.8 29428.7 29428.7 29268.6 29268.6 29109.4 29109.4 28951.2 28951.2 28793.9 28793.9 28637.5 28637.5 28482.1 28482.1 28327.6 28327.6 28174 28174 28021.4 28021.4 27869.6 27869.6 27718.7 27718.7 27568.7 27568.7 27419.7 27419.7 27271.4 27271.4 27124.1 27124.1 26977.7 26977.7 26832.1 26832.1 26687.3 26687.3 26543.4 26543.4 26400.4 26400.4 26258.2 26258.2 26116.9 26116.9 25976.4 25976.4 25836.7 25836.7 25697.8 25697.8 25559.7 25559.7 25422.5 25422.5 25286 25286 25150.4 25150.4 25015.6 25015.6 24881.5 24881.5 24748.2 24748.2 24615.7 24615.7 24484 24484 24353.1 24353.1 24222.9 24222.9 24093.5 24093.5 23964.8 23964.8 23836.9 23836.9 23709.7 23709.7 23583.3 23583.3 23457.6 23457.6 23332.6 23332.6 23208.4 23208.4 23084.8 23084.8 22962 22962 22839.9 22839.9 22718.6 22718.6 22597.9 22597.9 22477.9 22477.9 22358.6 22358.6 22240 22240 22122.1 22122.1 22004.8 22004.8 21888.2 21888.2 21772.3 21772.3 21657.1 21657.1 21542.5 21542.5 21428.6 21428.6 21315.4 21315.4 21202.8 21202.8 21090.8 21090.8 20979.5 20979.5 20868.8 20868.8 20758.7 20758.7 20649.3 20649.3 20540.5 20540.5 20432.3 20432.3 20324.7 20324.7 20217.8 20217.8 20111.4 20111.4 20005.6 20005.6 19900.5 19900.5 19795.9 19795.9 19692 19692 19588.6 19588.6 19485.8 19485.8 19383.6 19383.6 19282 19282 19180.9 19180.9 19080.4 19080.4 18980.5 18980.5 18881.1 18881.1 18782.3 18782.3 18684.1 18684.1 18586.4 18586.4 18489.2 18489.2 18392.6 18392.6 18296.5 18296.5 18201 18201 18106 18106 18011.5 18011.5 17917.5 17917.5 17824.1 17824.1 17731.2 17731.2 17638.8 17638.8 17546.9 17546.9 17455.6 17455.6 17364.7 17364.7 17274.3 17274.3 17184.5 17184.5 17095.1 17095.1 17006.2 17006.2 16917.8 16917.8 16829.9 16829.9 16742.5 16742.5 16655.6 16655.6 16569.1 16569.1 16483.1 16483.1 16397.6 16397.6 16312.5 16312.5 16228 16228 16143.8 16143.8 16060.2 16060.2 15977 15977 15894.2 15894.2 15811.9 15811.9 15730 15730 15648.6 15648.6 15567.6 15567.6 15487.1 15487.1 15407 15407 15327.3 15327.3 15248.1 15248.1 15169.3 15169.3 15090.9 15090.9 15012.9 15012.9 14935.3 14935.3 14858.2 14858.2 14781.5 14781.5 14705.2 14705.2 14629.3 14629.3 14553.8 14553.8 14478.7 14478.7 14404 14404 14329.7 14329.7 14255.8 14255.8 14182.3 14182.3 14109.2 14109.2 14036.4 14036.4 13964.1 13964.1 13892.1 13892.1 13820.6 13820.6 13749.3 13749.3 13678.5 13678.5 13608.1 13608.1 13538 13538 13468.3 13468.3 13398.9 13398.9 13329.9 13329.9 13261.3 13261.3 13193 13193 13125.1 13125.1 13057.6 13057.6 12990.4 12990.4 12923.5 12923.5 12857 12857 12790.9 12790.9 12725 12725 12659.6 12659.6 12594.4 12594.4 12529.6 12529.6 12465.2 12465.2 12401 12401 12337.2 12337.2 12273.8 12273.8 12210.6 12210.6 12147.8 12147.8 12085.3 12085.3 12023.1 12023.1 11961.3 11961.3 11899.7 11899.7 11838.5 11838.5 11777.6 11777.6 11717 11717 11656.7 11656.7 11596.7 11596.7 11537 11537 11477.6 11477.6 11418.6 11418.6 11359.8 11359.8 11301.3 11301.3 11243.1 11243.1 11185.2 11185.2 11127.6 11127.6 11070.3 11070.3 11013.3 11013.3 10956.6 10956.6 10900.1 10900.1 10844 10844 10788.1 10788.1 10732.5 10732.5 10677.1 10677.1 10622.1 10622.1 10567.3 10567.3 10512.8 10512.8 10458.6 10458.6 10404.6 10404.6 10350.9 10350.9 10297.5 10297.5 10244.3 10244.3 10191.4 10191.4 10138.8 10138.8 10086.4 10086.4 10034.3 10034.3 9982.4 9982.4 9930.79 9930.79 9879.43 9879.43 9828.33 9828.33 9777.48 9777.48 9726.87 9726.87 9676.51 9676.51 9626.4 9626.4 9576.53 9576.53 9526.91 9526.91 9477.53 9477.53 9428.39 9428.39 9379.48 9379.48 9330.82 9330.82 9282.39 9282.39 9234.19 9234.19 9186.23 9186.23 9138.5 9138.5 9091 9091 9043.72 9043.72 8996.68 8996.68 8949.86 8949.86 8903.27 8903.27 8856.9 8856.9 8810.75 8810.75 8764.83 8764.83 8719.12 8719.12 8673.63 8673.63 8628.36 8628.36 8583.3 8583.3 8538.46 8538.46 8493.84 8493.84 8449.42 8449.42 8405.21 8405.21 8361.22 8361.22 8317.43 8317.43 8273.85 8273.85 8230.48 8230.48 8187.31 8187.31 8144.34 8144.34 8101.58 8101.58 8059.01 8059.01 8016.65 8016.65 7974.48 7974.48 7932.52 7932.52 7890.75 7890.75 7849.17 7849.17 7807.79 7807.79 7766.6 7766.6 7725.6 7725.6 7684.8 7684.8 7644.18 7644.18 7603.76 7603.76 7563.52 7563.52 7523.46 7523.46 7483.6 7483.6 7443.91 7443.91 7404.41 7404.41 7365.09 7365.09 7325.96 7325.96 7287 7287 7248.22 7248.22 7209.62 7209.62 7171.2 7171.2 7132.95 7132.95 7094.88 7094.88 7056.99 7056.99 7019.26 7019.26 6981.71 6981.71 6944.33 6944.33 6907.12 6907.12 6870.08 6870.08 6833.2 6833.2 6796.5 6796.5 6759.96 6759.96 6723.58 6723.58 6687.37 6687.37 6651.33 6651.33 6615.44 6615.44 6579.72 6579.72 6544.16 6544.16 6508.76 6508.76 6473.52 6473.52 6438.43 6438.43 6403.51 6403.51 6368.74 6368.74 6334.12 6334.12 6299.66 6299.66 6265.36 6265.36 6231.2 6231.2 6197.2 6197.2 6163.35 6163.35 6129.65 6129.65 6096.1 6096.1 6062.7 6062.7 6029.45 6029.45 5996.34 5996.34 5963.38 5963.38 5930.57 5930.57 5897.9 5897.9 5865.37 5865.37 5832.99 5832.99 5800.75 5800.75 5768.65 5768.65 5736.69 5736.69 5704.88 5704.88 5673.2 5673.2 5641.66 5641.66 5610.26 5610.26 5578.99 5578.99 5547.86 5547.86 5516.87 5516.87 5486.01 5486.01 5455.29 5455.29 5424.7 5424.7 5394.24 5394.24 5363.91 5363.91 5333.72 5333.72 5303.65 5303.65 5273.72 5273.72 5243.91 5243.91 5214.24 5214.24 5184.69 5184.69 5155.26 5155.26 5125.97 5125.97 5096.8 5096.8 5067.75 5067.75 5038.83 5038.83 5010.04 5010.04 4981.36 4981.36 4952.81 4952.81 4924.38 4924.38 4896.07 4896.07 4867.88 4867.88 4839.81 4839.81 4811.86 4811.86 4784.03 4784.03 4756.32 4756.32 4728.73 4728.73 4701.25 4701.25 4673.88 4673.88 4646.64 4646.64 4619.51 4619.51 4592.49 4592.49 4565.58 4565.58 4538.79 4538.79 4512.11 4512.11 4485.55 4485.55 4459.09 4459.09 4432.75 4432.75 4406.51 4406.51 4380.39 4380.39 4354.37 4354.37 4328.46 4328.46 4302.67 4302.67 4276.97 4276.97 4251.39 4251.39 4225.91 4225.91 4200.54 4200.54 4175.27 4175.27 4150.11 4150.11 4125.05 4125.05 4100.09 4100.09 4075.24 4075.24 4050.49 4050.49 4025.84 4025.84 4001.29 4001.29 3976.85 3976.85 3952.5 3952.5 3928.26 3928.26 3904.11 3904.11 3880.06 3880.06 3856.11 3856.11 3832.26 3832.26 3808.51 3808.51 3784.85 3784.85 3761.29 3761.29 3737.83 3737.83 3714.46 3714.46 3691.19 3691.19 3668.01 3668.01 3644.92 3644.92 3621.93 3621.93 3599.03 3599.03 3576.22 3576.22 3553.51 3553.51 3530.89 3530.89 3508.35 3508.35 3485.91 3485.91 3463.56 3463.56 3441.3 3441.3 3419.13 3419.13 3397.05 3397.05 3375.05 3375.05 3353.14 3353.14 3331.32 3331.32 3309.59 3309.59 3287.95 3287.95 3266.39 3266.39 3244.91 3244.91 3223.53 3223.53 3202.22 3202.22 3181 3181 3159.87 3159.87 3138.82 3138.82 3117.85 3117.85 3096.96 3096.96 3076.16 3076.16 3055.43 3055.43 3034.79 3034.79 3014.23 3014.23 2993.75 2993.75 2973.35 2973.35 2953.02 2953.02 2932.78 2932.78 2912.61 2912.61 2892.53 2892.53 2872.52 2872.52 2852.58 2852.58 2832.73 2832.73 2812.95 2812.95 2793.25 2793.25 2773.62 2773.62 2754.07 2754.07 2734.59 2734.59 2715.19 2715.19 2695.87 2695.87 2676.62 2676.62 2657.45 2657.45 2638.35 2638.35 2619.33 2619.33 2600.39 2600.39 2581.52 2581.52 2562.72 2562.72 2544.01 2544.01 2525.37 2525.37 2506.8 2506.8 2488.31 2488.31 2469.9 2469.9 2451.57 2451.57 2433.31 2433.31 2415.13 2415.13 2397.02 2397.02 2378.99 2378.99 2361.04 2361.04 2343.16 2343.16 2325.36 2325.36 2307.63 2307.63 2289.97 2289.97 2272.39 2272.39 2254.88 2254.88 2237.45 2237.45 2220.08 2220.08 2202.79 2202.79 2185.57 2185.57 2168.41 2168.41 2151.33 2151.33 2134.31 2134.31 2117.35 2117.35 2100.47 2100.47 2083.64 2083.64 2066.88 2066.88 2050.18 2050.18 2033.53 2033.53 2016.95 2016.95 2000.42 2000.42 1983.95 1983.95 1967.54 1967.54 1951.17 1951.17 1934.86 1934.86 1918.6 1918.6 1902.4 1902.4 1886.24 1886.24 1870.13 1870.13 1854.07 1854.07 1838.06 1838.06 1822.09 1822.09 1806.18 1806.18 1790.31 1790.31 1774.49 1774.49 1758.72 1758.72 1743 1743 1727.33 1727.33 1711.71 1711.71 1696.14 1696.14 1680.62 1680.62 1665.16 1665.16 1649.75 1649.75 1634.39 1634.39 1619.09 1619.09 1603.84 1603.84 1588.65 1588.65 1573.52 1573.52 1558.45 1558.45 1543.43 1543.43 1528.47 1528.47 1513.57 1513.57 1498.73 1498.73 1483.95 1483.95 1469.23 1469.23 1454.56 1454.56 1439.96 1439.96 1425.41 1425.41 1410.92 1410.92 1396.49 1396.49 1382.12 1382.12 1367.8 1367.8 1353.54 1353.54 1339.34 1339.34 1325.19 1325.19 1311.1 1311.1 1297.06 1297.06 1283.07 1283.07 1269.14 1269.14 1255.26 1255.26 1241.43 1241.43 1227.65 1227.65 1213.93 1213.93 1200.26 1200.26 1186.63 1186.63 1173.06 1173.06 1159.54 1159.54 1146.06 1146.06 1132.64 1132.64 1119.26 1119.26 1105.94 1105.94 1092.66 1092.66 1079.42 1079.42 1066.24 1066.24 1053.11 1053.11 1040.02 1040.02 1026.97 1026.97 1013.98 1013.98 1001.03 1001.03 988.129 988.129 975.273 975.273 962.463 962.463 949.698 949.698 936.979 936.979 924.306 924.306 911.677 911.677 899.093 899.093 886.555 886.555 874.06 874.06 861.61 861.61 849.204 849.204 836.842 836.842 824.524 824.524 812.25 812.25 800.019 800.019 787.831 787.831 775.686 775.686 763.584 763.584 751.525 751.525 739.508 739.508 727.533 727.533 715.601 715.601 703.711 703.711 691.862 691.862 680.055 680.055 668.29 668.29 656.565 656.565 644.882 644.882 633.24 633.24 621.638 621.638 610.078 610.078 598.557 598.557 587.077 587.077 575.637 575.637 564.236 564.236 552.876 552.876 541.555 541.555 530.273 530.273 519.031 519.031 507.828 507.828 496.664 496.664 485.538 485.538 474.451 474.451 463.403 463.403 452.393 452.393 441.421 441.421 430.487 430.487 419.591 419.591 408.732 408.732 397.911 397.911 387.127 387.127 376.381 376.381 365.671 365.671 354.999 354.999 344.363 344.363 333.764 333.764 323.201 323.201 312.675 312.675 302.185 302.185 291.731 291.731 281.312 281.312 270.93 270.93 260.583 260.583 250.271 250.271 239.995 239.995 229.754 229.754 219.547 219.547 209.376 209.376 199.239 199.239 189.137 189.137 179.07 179.07 169.037 169.037 159.038 159.038 149.073 149.073 139.141 139.141 129.244 129.244 119.38 119.38 109.55 109.55 99.7532 99.7532 89.9895 89.9895 80.2589 80.2589 70.5613 70.5613 60.8965 60.8965 51.2645 51.2645 41.665 41.665 32.0979 32.0979 22.5632 22.5632 13.0606 13.0606 3.59009 3.59009 -5.84848 -5.84848 -15.2552 -15.2552 -24.6303 -24.6303 -33.9738 -33.9738 -43.2859 -43.2859 -52.5667 -52.5667 -61.8163 -61.8163 -71.0348 -71.0348 -80.2224 -80.2224 -89.3792 -89.3792 -98.5052 -98.5052 -107.601 -107.601 -116.666 -116.666 -125.7 -125.7 -134.705 -134.705 -143.679 -143.679 -152.624 -152.624 -161.538 -161.538 -170.423 -170.423 -179.278 -179.278 -188.103 -188.103 -196.899 -196.899 -205.666 -205.666 -214.404 -214.404 -223.113 -223.113 -231.792 -231.792 -240.443 -240.443 -249.065 -249.065 -257.658 -257.658 -266.223 -266.223 -274.76 -274.76 -283.268 -283.268 -291.748 -291.748 -300.2 -300.2 -308.624 -308.624 -317.02 -317.02 -325.388 -325.388 -333.729 -333.729 -342.042 -342.042 -350.327 -350.327 -358.586 -358.586 -366.817 -366.817 -375.021 -375.021 -383.198 -383.198 -391.348 -391.348 -399.471 -399.471 -407.567 -407.567 -415.637 -415.637 -423.68 -423.68 -431.697 -431.697 -439.688 -439.688 -447.652 -447.652 -455.59 -455.59 -463.502 -463.502 -471.389 -471.389 -479.249 -479.249 -487.084 -487.084 -494.893 -494.893 -502.676 -502.676 -510.435 -510.435 -518.167 -518.167 -525.875 -525.875 -533.557 -533.557 -541.214 -541.214 -548.847 -548.847 -556.454 -556.454 -564.037 -564.037 -571.595 -571.595 -579.128 -579.128 -586.637 -586.637 -594.121 -594.121 -601.581 -601.581 -609.017 -609.017 -616.429 -616.429 -623.816 -623.816 -631.18 -631.18 -638.52 -638.52 -645.836 -645.836 -653.128 -653.128 -660.397 -660.397 -667.642 -667.642 -674.864 -674.864 -682.062 -682.062 -689.237 -689.237 -696.389 -696.389 -703.518 -703.518 -710.623 -710.623 -717.706 -717.706 -724.766 -724.766 -731.803 -731.803 -738.818 -738.818 -745.81 -745.81 -752.779 -752.779 -759.726 -759.726 -766.651 -766.651 -773.553 -773.553 -780.433 -780.433 -787.292 -787.292 -794.128 -794.128 -800.942 -800.942 -807.734 -807.734 -814.504 -814.504 -821.253 -821.253 -827.98 -827.98 -834.686 -834.686 -841.37 -841.37 -848.032 -848.032 -854.674 -854.674 -861.294 -861.294 -867.893 -867.893 -874.471 -874.471 -881.027 -881.027 -887.563 -887.563 -894.078 -894.078 -900.573 -900.573 -907.046 -907.046 -913.499 -913.499 -919.931 -919.931 -926.343 -926.343 -932.734 -932.734 -939.105 -939.105 -945.456 -945.456 -951.787 -951.787 -958.097 -958.097 -964.388 -964.388 -970.658 -970.658 -976.908 -976.908 -983.139 -983.139 -989.35 -989.35 -995.541 -995.541 -1001.71 -1001.71 -1007.86 -1007.86 -1014 -1014 -1020.11 -1020.11 -1026.2 -1026.2 -1032.28 -1032.28 -1038.33 -1038.33 -1044.37 -1044.37 -1050.39 -1050.39 -1056.38 -1056.38 -1062.36 -1062.36 -1068.32 -1068.32 -1074.26 -1074.26 -1080.19 -1080.19 -1086.09 -1086.09 -1091.98 -1091.98 -1097.84 -1097.84 -1103.69 -1103.69 -1109.52 -1109.52 -1115.33 -1115.33 -1121.12 -1121.12 -1126.9 -1126.9 -1132.66 -1132.66 -1138.39 -1138.39 -1144.11 -1144.11 -1149.82 -1149.82 -1155.5 -1155.5 -1161.17 -1161.17 -1166.82 -1166.82 -1172.45 -1172.45 -1178.06 -1178.06 -1183.66 -1183.66 -1189.24 -1189.24 -1194.8 -1194.8 -1200.34 -1200.34 -1205.87 -1205.87 -1211.37 -1211.37 -1216.87 -1216.87 -1222.34 -1222.34 -1227.8 -1227.8 -1233.24 -1233.24 -1238.66 -1238.66 -1244.07 -1244.07 -1249.46 -1249.46 -1254.83 -1254.83 -1260.18 -1260.18 -1265.52 -1265.52 -1270.84 -1270.84 -1276.15 -1276.15 -1281.44 -1281.44 -1286.71 -1286.71 -1291.97 -1291.97 -1297.21 -1297.21 -1302.43 -1302.43 -1307.64 -1307.64 -1312.83 -1312.83 -1318 -1318 -1323.16 -1323.16 -1328.3 -1328.3 -1333.43 -1333.43 -1338.54 -1338.54 -1343.64 -1343.64 -1348.71 -1348.71 -1353.78 -1353.78 -1358.82 -1358.82 -1363.86 -1363.86 -1368.87 -1368.87 -1373.87 -1373.87 -1378.86 -1378.86 -1383.83 -1383.83 -1388.78 -1388.78 -1393.72 -1393.72 -1398.64 -1398.64 -1403.55 -1403.55 -1408.44 -1408.44 -1413.32 -1413.32 -1418.19 -1418.19 -1423.03 -1423.03 -1427.87 -1427.87 -1432.68 -1432.68 -1437.49 -1437.49 -1442.27 -1442.27 -1447.05 -1447.05 -1451.81 -1451.81 -1456.55 -1456.55 -1461.28 -1461.28 -1465.99 -1465.99 -1470.69 -1470.69 -1475.38 -1475.38 -1480.05 -1480.05 -1484.7 -1484.7 -1489.35 -1489.35 -1493.97 -1493.97 -1498.59 -1498.59 -1503.19 -1503.19 -1507.77 -1507.77 -1512.34 -1512.34 -1516.9 -1516.9 -1521.44 -1521.44 -1525.97 -1525.97 -1530.49 -1530.49 -1534.99 -1534.99 -1539.48 -1539.48 -1543.95 -1543.95 -1548.41 -1548.41 -1552.85 -1552.85 -1557.29 -1557.29 -1561.7 -1561.7 -1566.11 -1566.11 -1570.5 -1570.5 -1574.88 -1574.88 -1579.24 -1579.24 -1583.59 -1583.59 -1587.93 -1587.93 -1592.26 -1592.26 -1596.57 -1596.57 -1600.87 -1600.87 -1605.15 -1605.15 -1609.42 -1609.42 -1613.68 -1613.68 -1617.93 -1617.93 -1622.16 -1622.16 -1626.38 -1626.38 -1630.58 -1630.58 -1634.78 -1634.78 -1638.96 -1638.96 -1643.13 -1643.13 -1647.28 -1647.28 -1651.43 -1651.43 -1655.55 -1655.55 -1659.67 -1659.67 -1663.78 -1663.78 -1667.87 -1667.87 -1671.95 -1671.95 -1676.02 -1676.02 -1680.07 -1680.07 -1684.11 -1684.11 -1688.14 -1688.14 -1692.16 -1692.16 -1696.16 -1696.16 -1700.16 -1700.16 -1704.14 -1704.14 -1708.11 -1708.11 -1712.06 -1712.06 -1716.01 -1716.01 -1719.94 -1719.94 -1723.86 -1723.86 -1727.77 -1727.77 -1731.67 -1731.67 -1735.55 -1735.55 -1739.42 -1739.42 -1743.28 -1743.28 -1747.13 -1747.13 -1750.97 -1750.97 -1754.8 -1754.8 -1758.61 -1758.61 -1762.41 -1762.41 -1766.2 -1766.2 -1769.98 -1769.98 -1773.75 -1773.75 -1777.51 -1777.51 -1781.25 -1781.25 -1784.99 -1784.99 -1788.71 -1788.71 -1792.42 -1792.42 -1796.12 -1796.12 -1799.81 -1799.81 -1803.48 -1803.48 -1807.15 -1807.15 -1810.8 -1810.8 -1814.45 -1814.45 -1818.08 -1818.08 -1821.7 -1821.7 -1825.31 -1825.31 -1828.91 -1828.91 -1832.5 -1832.5 -1836.08 -1836.08 -1839.64 -1839.64 -1843.2 -1843.2 -1846.74 -1846.74 -1850.28 -1850.28 -1853.8 -1853.8 -1857.32 -1857.32 -1860.82 -1860.82 -1864.31 -1864.31 -1867.79 -1867.79 -1871.26 -1871.26 -1874.72 -1874