# vtk DataFile Version 3.0
#This file was generated by the deal.II library on 2020/9/6 at 2:52:30
ASCII
DATASET UNSTRUCTURED_GRID

POINTS 4096 double
1.5 0 0
1.59692 0 0
1.59692 0 0
1.69385 0 0
1.69385 0 0
1.79077 0 0
1.79077 0 0
1.8877 0 0
1.8877 0 0
1.98462 0 0
1.98462 0 0
2.08154 0 0
2.08154 0 0
2.17847 0 0
2.17847 0 0
2.27539 0 0
2.27539 0 0
2.37231 0 0
2.37231 0 0
2.46924 0 0
2.46924 0 0
2.56616 0 0
2.56616 0 0
2.66309 0 0
2.66309 0 0
2.76001 0 0
2.76001 0 0
2.85693 0 0
2.85693 0 0
2.95386 0 0
2.95386 0 0
3.05078 0 0
3.05078 0 0
3.14771 0 0
3.14771 0 0
3.24463 0 0
3.24463 0 0
3.34155 0 0
3.34155 0 0
3.43848 0 0
3.43848 0 0
3.5354 0 0
3.5354 0 0
3.63232 0 0
3.63232 0 0
3.72925 0 0
3.72925 0 0
3.82617 0 0
3.82617 0 0
3.9231 0 0
3.9231 0 0
4.02002 0 0
4.02002 0 0
4.11694 0 0
4.11694 0 0
4.21387 0 0
4.21387 0 0
4.31079 0 0
4.31079 0 0
4.40771 0 0
4.40771 0 0
4.50464 0 0
4.50464 0 0
4.60156 0 0
4.60156 0 0
4.69849 0 0
4.69849 0 0
4.79541 0 0
4.79541 0 0
4.89233 0 0
4.89233 0 0
4.98926 0 0
4.98926 0 0
5.08618 0 0
5.08618 0 0
5.18311 0 0
5.18311 0 0
5.28003 0 0
5.28003 0 0
5.37695 0 0
5.37695 0 0
5.47388 0 0
5.47388 0 0
5.5708 0 0
5.5708 0 0
5.66772 0 0
5.66772 0 0
5.76465 0 0
5.76465 0 0
5.86157 0 0
5.86157 0 0
5.9585 0 0
5.9585 0 0
6.05542 0 0
6.05542 0 0
6.15234 0 0
6.15234 0 0
6.24927 0 0
6.24927 0 0
6.34619 0 0
6.34619 0 0
6.44312 0 0
6.44312 0 0
6.54004 0 0
6.54004 0 0
6.63696 0 0
6.63696 0 0
6.73389 0 0
6.73389 0 0
6.83081 0 0
6.83081 0 0
6.92773 0 0
6.92773 0 0
7.02466 0 0
7.02466 0 0
7.12158 0 0
7.12158 0 0
7.21851 0 0
7.21851 0 0
7.31543 0 0
7.31543 0 0
7.41235 0 0
7.41235 0 0
7.50928 0 0
7.50928 0 0
7.6062 0 0
7.6062 0 0
7.70312 0 0
7.70312 0 0
7.80005 0 0
7.80005 0 0
7.89697 0 0
7.89697 0 0
7.9939 0 0
7.9939 0 0
8.09082 0 0
8.09082 0 0
8.18774 0 0
8.18774 0 0
8.28467 0 0
8.28467 0 0
8.38159 0 0
8.38159 0 0
8.47852 0 0
8.47852 0 0
8.57544 0 0
8.57544 0 0
8.67236 0 0
8.67236 0 0
8.76929 0 0
8.76929 0 0
8.86621 0 0
8.86621 0 0
8.96313 0 0
8.96313 0 0
9.06006 0 0
9.06006 0 0
9.15698 0 0
9.15698 0 0
9.25391 0 0
9.25391 0 0
9.35083 0 0
9.35083 0 0
9.44775 0 0
9.44775 0 0
9.54468 0 0
9.54468 0 0
9.6416 0 0
9.6416 0 0
9.73853 0 0
9.73853 0 0
9.83545 0 0
9.83545 0 0
9.93237 0 0
9.93237 0 0
10.0293 0 0
10.0293 0 0
10.1262 0 0
10.1262 0 0
10.2231 0 0
10.2231 0 0
10.3201 0 0
10.3201 0 0
10.417 0 0
10.417 0 0
10.5139 0 0
10.5139 0 0
10.6108 0 0
10.6108 0 0
10.7078 0 0
10.7078 0 0
10.8047 0 0
10.8047 0 0
10.9016 0 0
10.9016 0 0
10.9985 0 0
10.9985 0 0
11.0955 0 0
11.0955 0 0
11.1924 0 0
11.1924 0 0
11.2893 0 0
11.2893 0 0
11.3862 0 0
11.3862 0 0
11.4832 0 0
11.4832 0 0
11.5801 0 0
11.5801 0 0
11.677 0 0
11.677 0 0
11.7739 0 0
11.7739 0 0
11.8708 0 0
11.8708 0 0
11.9678 0 0
11.9678 0 0
12.0647 0 0
12.0647 0 0
12.1616 0 0
12.1616 0 0
12.2585 0 0
12.2585 0 0
12.3555 0 0
12.3555 0 0
12.4524 0 0
12.4524 0 0
12.5493 0 0
12.5493 0 0
12.6462 0 0
12.6462 0 0
12.7432 0 0
12.7432 0 0
12.8401 0 0
12.8401 0 0
12.937 0 0
12.937 0 0
13.0339 0 0
13.0339 0 0
13.1309 0 0
13.1309 0 0
13.2278 0 0
13.2278 0 0
13.3247 0 0
13.3247 0 0
13.4216 0 0
13.4216 0 0
13.5186 0 0
13.5186 0 0
13.6155 0 0
13.6155 0 0
13.7124 0 0
13.7124 0 0
13.8093 0 0
13.8093 0 0
13.9062 0 0
13.9062 0 0
14.0032 0 0
14.0032 0 0
14.1001 0 0
14.1001 0 0
14.197 0 0
14.197 0 0
14.2939 0 0
14.2939 0 0
14.3909 0 0
14.3909 0 0
14.4878 0 0
14.4878 0 0
14.5847 0 0
14.5847 0 0
14.6816 0 0
14.6816 0 0
14.7786 0 0
14.7786 0 0
14.8755 0 0
14.8755 0 0
14.9724 0 0
14.9724 0 0
15.0693 0 0
15.0693 0 0
15.1663 0 0
15.1663 0 0
15.2632 0 0
15.2632 0 0
15.3601 0 0
15.3601 0 0
15.457 0 0
15.457 0 0
15.554 0 0
15.554 0 0
15.6509 0 0
15.6509 0 0
15.7478 0 0
15.7478 0 0
15.8447 0 0
15.8447 0 0
15.9417 0 0
15.9417 0 0
16.0386 0 0
16.0386 0 0
16.1355 0 0
16.1355 0 0
16.2324 0 0
16.2324 0 0
16.3293 0 0
16.3293 0 0
16.4263 0 0
16.4263 0 0
16.5232 0 0
16.5232 0 0
16.6201 0 0
16.6201 0 0
16.717 0 0
16.717 0 0
16.814 0 0
16.814 0 0
16.9109 0 0
16.9109 0 0
17.0078 0 0
17.0078 0 0
17.1047 0 0
17.1047 0 0
17.2017 0 0
17.2017 0 0
17.2986 0 0
17.2986 0 0
17.3955 0 0
17.3955 0 0
17.4924 0 0
17.4924 0 0
17.5894 0 0
17.5894 0 0
17.6863 0 0
17.6863 0 0
17.7832 0 0
17.7832 0 0
17.8801 0 0
17.8801 0 0
17.9771 0 0
17.9771 0 0
18.074 0 0
18.074 0 0
18.1709 0 0
18.1709 0 0
18.2678 0 0
18.2678 0 0
18.3647 0 0
18.3647 0 0
18.4617 0 0
18.4617 0 0
18.5586 0 0
18.5586 0 0
18.6555 0 0
18.6555 0 0
18.7524 0 0
18.7524 0 0
18.8494 0 0
18.8494 0 0
18.9463 0 0
18.9463 0 0
19.0432 0 0
19.0432 0 0
19.1401 0 0
19.1401 0 0
19.2371 0 0
19.2371 0 0
19.334 0 0
19.334 0 0
19.4309 0 0
19.4309 0 0
19.5278 0 0
19.5278 0 0
19.6248 0 0
19.6248 0 0
19.7217 0 0
19.7217 0 0
19.8186 0 0
19.8186 0 0
19.9155 0 0
19.9155 0 0
20.0125 0 0
20.0125 0 0
20.1094 0 0
20.1094 0 0
20.2063 0 0
20.2063 0 0
20.3032 0 0
20.3032 0 0
20.4001 0 0
20.4001 0 0
20.4971 0 0
20.4971 0 0
20.594 0 0
20.594 0 0
20.6909 0 0
20.6909 0 0
20.7878 0 0
20.7878 0 0
20.8848 0 0
20.8848 0 0
20.9817 0 0
20.9817 0 0
21.0786 0 0
21.0786 0 0
21.1755 0 0
21.1755 0 0
21.2725 0 0
21.2725 0 0
21.3694 0 0
21.3694 0 0
21.4663 0 0
21.4663 0 0
21.5632 0 0
21.5632 0 0
21.6602 0 0
21.6602 0 0
21.7571 0 0
21.7571 0 0
21.854 0 0
21.854 0 0
21.9509 0 0
21.9509 0 0
22.0479 0 0
22.0479 0 0
22.1448 0 0
22.1448 0 0
22.2417 0 0
22.2417 0 0
22.3386 0 0
22.3386 0 0
22.4355 0 0
22.4355 0 0
22.5325 0 0
22.5325 0 0
22.6294 0 0
22.6294 0 0
22.7263 0 0
22.7263 0 0
22.8232 0 0
22.8232 0 0
22.9202 0 0
22.9202 0 0
23.0171 0 0
23.0171 0 0
23.114 0 0
23.114 0 0
23.2109 0 0
23.2109 0 0
23.3079 0 0
23.3079 0 0
23.4048 0 0
23.4048 0 0
23.5017 0 0
23.5017 0 0
23.5986 0 0
23.5986 0 0
23.6956 0 0
23.6956 0 0
23.7925 0 0
23.7925 0 0
23.8894 0 0
23.8894 0 0
23.9863 0 0
23.9863 0 0
24.0833 0 0
24.0833 0 0
24.1802 0 0
24.1802 0 0
24.2771 0 0
24.2771 0 0
24.374 0 0
24.374 0 0
24.4709 0 0
24.4709 0 0
24.5679 0 0
24.5679 0 0
24.6648 0 0
24.6648 0 0
24.7617 0 0
24.7617 0 0
24.8586 0 0
24.8586 0 0
24.9556 0 0
24.9556 0 0
25.0525 0 0
25.0525 0 0
25.1494 0 0
25.1494 0 0
25.2463 0 0
25.2463 0 0
25.3433 0 0
25.3433 0 0
25.4402 0 0
25.4402 0 0
25.5371 0 0
25.5371 0 0
25.634 0 0
25.634 0 0
25.731 0 0
25.731 0 0
25.8279 0 0
25.8279 0 0
25.9248 0 0
25.9248 0 0
26.0217 0 0
26.0217 0 0
26.1187 0 0
26.1187 0 0
26.2156 0 0
26.2156 0 0
26.3125 0 0
26.3125 0 0
26.4094 0 0
26.4094 0 0
26.5063 0 0
26.5063 0 0
26.6033 0 0
26.6033 0 0
26.7002 0 0
26.7002 0 0
26.7971 0 0
26.7971 0 0
26.894 0 0
26.894 0 0
26.991 0 0
26.991 0 0
27.0879 0 0
27.0879 0 0
27.1848 0 0
27.1848 0 0
27.2817 0 0
27.2817 0 0
27.3787 0 0
27.3787 0 0
27.4756 0 0
27.4756 0 0
27.5725 0 0
27.5725 0 0
27.6694 0 0
27.6694 0 0
27.7664 0 0
27.7664 0 0
27.8633 0 0
27.8633 0 0
27.9602 0 0
27.9602 0 0
28.0571 0 0
28.0571 0 0
28.1541 0 0
28.1541 0 0
28.251 0 0
28.251 0 0
28.3479 0 0
28.3479 0 0
28.4448 0 0
28.4448 0 0
28.5417 0 0
28.5417 0 0
28.6387 0 0
28.6387 0 0
28.7356 0 0
28.7356 0 0
28.8325 0 0
28.8325 0 0
28.9294 0 0
28.9294 0 0
29.0264 0 0
29.0264 0 0
29.1233 0 0
29.1233 0 0
29.2202 0 0
29.2202 0 0
29.3171 0 0
29.3171 0 0
29.4141 0 0
29.4141 0 0
29.511 0 0
29.511 0 0
29.6079 0 0
29.6079 0 0
29.7048 0 0
29.7048 0 0
29.8018 0 0
29.8018 0 0
29.8987 0 0
29.8987 0 0
29.9956 0 0
29.9956 0 0
30.0925 0 0
30.0925 0 0
30.1895 0 0
30.1895 0 0
30.2864 0 0
30.2864 0 0
30.3833 0 0
30.3833 0 0
30.4802 0 0
30.4802 0 0
30.5771 0 0
30.5771 0 0
30.6741 0 0
30.6741 0 0
30.771 0 0
30.771 0 0
30.8679 0 0
30.8679 0 0
30.9648 0 0
30.9648 0 0
31.0618 0 0
31.0618 0 0
31.1587 0 0
31.1587 0 0
31.2556 0 0
31.2556 0 0
31.3525 0 0
31.3525 0 0
31.4495 0 0
31.4495 0 0
31.5464 0 0
31.5464 0 0
31.6433 0 0
31.6433 0 0
31.7402 0 0
31.7402 0 0
31.8372 0 0
31.8372 0 0
31.9341 0 0
31.9341 0 0
32.031 0 0
32.031 0 0
32.1279 0 0
32.1279 0 0
32.2249 0 0
32.2249 0 0
32.3218 0 0
32.3218 0 0
32.4187 0 0
32.4187 0 0
32.5156 0 0
32.5156 0 0
32.6125 0 0
32.6125 0 0
32.7095 0 0
32.7095 0 0
32.8064 0 0
32.8064 0 0
32.9033 0 0
32.9033 0 0
33.0002 0 0
33.0002 0 0
33.0972 0 0
33.0972 0 0
33.1941 0 0
33.1941 0 0
33.291 0 0
33.291 0 0
33.3879 0 0
33.3879 0 0
33.4849 0 0
33.4849 0 0
33.5818 0 0
33.5818 0 0
33.6787 0 0
33.6787 0 0
33.7756 0 0
33.7756 0 0
33.8726 0 0
33.8726 0 0
33.9695 0 0
33.9695 0 0
34.0664 0 0
34.0664 0 0
34.1633 0 0
34.1633 0 0
34.2603 0 0
34.2603 0 0
34.3572 0 0
34.3572 0 0
34.4541 0 0
34.4541 0 0
34.551 0 0
34.551 0 0
34.6479 0 0
34.6479 0 0
34.7449 0 0
34.7449 0 0
34.8418 0 0
34.8418 0 0
34.9387 0 0
34.9387 0 0
35.0356 0 0
35.0356 0 0
35.1326 0 0
35.1326 0 0
35.2295 0 0
35.2295 0 0
35.3264 0 0
35.3264 0 0
35.4233 0 0
35.4233 0 0
35.5203 0 0
35.5203 0 0
35.6172 0 0
35.6172 0 0
35.7141 0 0
35.7141 0 0
35.811 0 0
35.811 0 0
35.908 0 0
35.908 0 0
36.0049 0 0
36.0049 0 0
36.1018 0 0
36.1018 0 0
36.1987 0 0
36.1987 0 0
36.2957 0 0
36.2957 0 0
36.3926 0 0
36.3926 0 0
36.4895 0 0
36.4895 0 0
36.5864 0 0
36.5864 0 0
36.6833 0 0
36.6833 0 0
36.7803 0 0
36.7803 0 0
36.8772 0 0
36.8772 0 0
36.9741 0 0
36.9741 0 0
37.071 0 0
37.071 0 0
37.168 0 0
37.168 0 0
37.2649 0 0
37.2649 0 0
37.3618 0 0
37.3618 0 0
37.4587 0 0
37.4587 0 0
37.5557 0 0
37.5557 0 0
37.6526 0 0
37.6526 0 0
37.7495 0 0
37.7495 0 0
37.8464 0 0
37.8464 0 0
37.9434 0 0
37.9434 0 0
38.0403 0 0
38.0403 0 0
38.1372 0 0
38.1372 0 0
38.2341 0 0
38.2341 0 0
38.3311 0 0
38.3311 0 0
38.428 0 0
38.428 0 0
38.5249 0 0
38.5249 0 0
38.6218 0 0
38.6218 0 0
38.7188 0 0
38.7188 0 0
38.8157 0 0
38.8157 0 0
38.9126 0 0
38.9126 0 0
39.0095 0 0
39.0095 0 0
39.1064 0 0
39.1064 0 0
39.2034 0 0
39.2034 0 0
39.3003 0 0
39.3003 0 0
39.3972 0 0
39.3972 0 0
39.4941 0 0
39.4941 0 0
39.5911 0 0
39.5911 0 0
39.688 0 0
39.688 0 0
39.7849 0 0
39.7849 0 0
39.8818 0 0
39.8818 0 0
39.9788 0 0
39.9788 0 0
40.0757 0 0
40.0757 0 0
40.1726 0 0
40.1726 0 0
40.2695 0 0
40.2695 0 0
40.3665 0 0
40.3665 0 0
40.4634 0 0
40.4634 0 0
40.5603 0 0
40.5603 0 0
40.6572 0 0
40.6572 0 0
40.7542 0 0
40.7542 0 0
40.8511 0 0
40.8511 0 0
40.948 0 0
40.948 0 0
41.0449 0 0
41.0449 0 0
41.1418 0 0
41.1418 0 0
41.2388 0 0
41.2388 0 0
41.3357 0 0
41.3357 0 0
41.4326 0 0
41.4326 0 0
41.5295 0 0
41.5295 0 0
[...]
POINT_DATA 4096
SCALARS solution_0 double 1
LOOKUP_TABLE default
8185.98 8016.33 8016.33 7873.28 7873.28 7751.43 7751.43 7646.64 7646.64 7555.72 7555.72 7476.13 7476.13 7405.88 7405.88 7343.36 7343.36 7287.27 7287.27 7236.56 7236.56 7190.35 7190.35 7147.92 7147.92 7108.69 7108.69 7072.15 7072.15 7037.88 7037.88 7005.54 7005.54 6974.82 6974.82 6945.47 6945.47 6917.27 6917.27 6890.04 6890.04 6863.63 6863.63 6837.89 6837.89 6812.71 6812.71 6787.99 6787.99 6763.64 6763.64 6739.6 6739.6 6715.79 6715.79 6692.16 6692.16 6668.66 6668.66 6645.26 6645.26 6621.92 6621.92 6598.61 6598.61 6575.29 6575.29 6551.96 6551.96 6528.6 6528.6 6505.18 6505.18 6481.69 6481.69 6458.13 6458.13 6434.49 6434.49 6410.75 6410.75 6386.92 6386.92 6362.98 6362.98 6338.95 6338.95 6314.8 6314.8 6290.55 6290.55 6266.19 6266.19 6241.73 6241.73 6217.15 6217.15 6192.48 6192.48 6167.7 6167.7 6142.82 6142.82 6117.85 6117.85 6092.78 6092.78 6067.62 6067.62 6042.37 6042.37 6017.04 6017.04 5991.63 5991.63 5966.14 5966.14 5940.58 5940.58 5914.95 5914.95 5889.26 5889.26 5863.51 5863.51 5837.7 5837.7 5811.84 5811.84 5785.93 5785.93 5759.98 5759.98 5733.99 5733.99 5707.96 5707.96 5681.9 5681.9 5655.82 5655.82 5629.71 5629.71 5603.58 5603.58 5577.44 5577.44 5551.28 5551.28 5525.12 5525.12 5498.95 5498.95 5472.79 5472.79 5446.62 5446.62 5420.46 5420.46 5394.31 5394.31 5368.17 5368.17 5342.05 5342.05 5315.95 5315.95 5289.87 5289.87 5263.81 5263.81 5237.79 5237.79 5211.79 5211.79 5185.83 5185.83 5159.9 5159.9 5134.02 5134.02 5108.17 5108.17 5082.37 5082.37 5056.62 5056.62 5030.91 5030.91 5005.26 5005.26 4979.66 4979.66 4954.11 4954.11 4928.63 4928.63 4903.2 4903.2 4877.83 4877.83 4852.53 4852.53 4827.3 4827.3 4802.13 4802.13 4777.03 4777.03 4752 4752 4727.04 4727.04 4702.16 4702.16 4677.35 4677.35 4652.62 4652.62 4627.97 4627.97 4603.39 4603.39 4578.9 4578.9 4554.49 4554.49 4530.16 4530.16 4505.92 4505.92 4481.76 4481.76 4457.69 4457.69 4433.71 4433.71 4409.81 4409.81 4386.01 4386.01 4362.29 4362.29 4338.67 4338.67 4315.14 4315.14 4291.7 4291.7 4268.36 4268.36 4245.11 4245.11 4221.96 4221.96 4198.9 4198.9 4175.93 4175.93 4153.07 4153.07 4130.3 4130.3 4107.63 4107.63 4085.06 4085.06 4062.59 4062.59 4040.21 4040.21 4017.94 4017.94 3995.77 3995.77 3973.7 3973.7 3951.72 3951.72 3929.85 3929.85 3908.09 3908.09 3886.42 3886.42 3864.85 3864.85 3843.39 3843.39 3822.03 3822.03 3800.77 3800.77 3779.61 3779.61 3758.56 3758.56 3737.61 3737.61 3716.76 3716.76 3696.02 3696.02 3675.38 3675.38 3654.84 3654.84 3634.41 3634.41 3614.07 3614.07 3593.85 3593.85 3573.72 3573.72 3553.7 3553.7 3533.78 3533.78 3513.96 3513.96 3494.25 3494.25 3474.64 3474.64 3455.13 3455.13 3435.72 3435.72 3416.42 3416.42 3397.22 3397.22 3378.11 3378.11 3359.12 3359.12 3340.22 3340.22 3321.43 3321.43 3302.73 3302.73 3284.14 3284.14 3265.65 3265.65 3247.25 3247.25 3228.96 3228.96 3210.77 3210.77 3192.68 3192.68 3174.69 3174.69 3156.79 3156.79 3139 3139 3121.3 3121.3 3103.71 3103.71 3086.21 3086.21 3068.81 3068.81 3051.5 3051.5 3034.3 3034.3 3017.19 3017.19 3000.17 3000.17 2983.25 2983.25 2966.43 2966.43 2949.71 2949.71 2933.07 2933.07 2916.54 2916.54 2900.1 2900.1 2883.75 2883.75 2867.49 2867.49 2851.33 2851.33 2835.26 2835.26 2819.28 2819.28 2803.4 2803.4 2787.61 2787.61 2771.91 2771.91 2756.29 2756.29 2740.77 2740.77 2725.34 2725.34 2710 2710 2694.75 2694.75 2679.59 2679.59 2664.51 2664.51 2649.53 2649.53 2634.63 2634.63 2619.82 2619.82 2605.09 2605.09 2590.46 2590.46 2575.9 2575.9 2561.44 2561.44 2547.06 2547.06 2532.76 2532.76 2518.55 2518.55 2504.42 2504.42 2490.37 2490.37 2476.41 2476.41 2462.53 2462.53 2448.73 2448.73 2435.02 2435.02 2421.38 2421.38 2407.83 2407.83 2394.35 2394.35 2380.96 2380.96 2367.65 2367.65 2354.41 2354.41 2341.26 2341.26 2328.18 2328.18 2315.18 2315.18 2302.26 2302.26 2289.41 2289.41 2276.64 2276.64 2263.95 2263.95 2251.33 2251.33 2238.79 2238.79 2226.32 2226.32 2213.93 2213.93 2201.61 2201.61 2189.37 2189.37 2177.2 2177.2 2165.1 2165.1 2153.07 2153.07 2141.12 2141.12 2129.23 2129.23 2117.42 2117.42 2105.68 2105.68 2094.01 2094.01 2082.41 2082.41 2070.88 2070.88 2059.41 2059.41 2048.02 2048.02 2036.7 2036.7 2025.44 2025.44 2014.25 2014.25 2003.12 2003.12 1992.07 1992.07 1981.08 1981.08 1970.15 1970.15 1959.29 1959.29 1948.5 1948.5 1937.77 1937.77 1927.1 1927.1 1916.5 1916.5 1905.96 1905.96 1895.49 1895.49 1885.07 1885.07 1874.72 1874.72 1864.43 1864.43 1854.21 1854.21 1844.04 1844.04 1833.94 1833.94 1823.89 1823.89 1813.91 1813.91 1803.98 1803.98 1794.12 1794.12 1784.31 1784.31 1774.56 1774.56 1764.87 1764.87 1755.24 1755.24 1745.66 1745.66 1736.14 1736.14 1726.68 1726.68 1717.28 1717.28 1707.93 1707.93 1698.63 1698.63 1689.4 1689.4 1680.21 1680.21 1671.08 1671.08 1662.01 1662.01 1652.99 1652.99 1644.02 1644.02 1635.11 1635.11 1626.25 1626.25 1617.44 1617.44 1608.68 1608.68 1599.98 1599.98 1591.32 1591.32 1582.72 1582.72 1574.17 1574.17 1565.67 1565.67 1557.22 1557.22 1548.82 1548.82 1540.47 1540.47 1532.17 1532.17 1523.91 1523.91 1515.71 1515.71 1507.55 1507.55 1499.44 1499.44 1491.38 1491.38 1483.37 1483.37 1475.41 1475.41 1467.49 1467.49 1459.61 1459.61 1451.79 1451.79 1444.01 1444.01 1436.27 1436.27 1428.58 1428.58 1420.93 1420.93 1413.33 1413.33 1405.78 1405.78 1398.26 1398.26 1390.8 1390.8 1383.37 1383.37 1375.99 1375.99 1368.65 1368.65 1361.35 1361.35 1354.1 1354.1 1346.89 1346.89 1339.72 1339.72 1332.59 1332.59 1325.5 1325.5 1318.46 1318.46 1311.45 1311.45 1304.49 1304.49 1297.56 1297.56 1290.68 1290.68 1283.83 1283.83 1277.03 1277.03 1270.26 1270.26 1263.53 1263.53 1256.84 1256.84 1250.19 1250.19 1243.58 1243.58 1237 1237 1230.47 1230.47 1223.97 1223.97 1217.5 1217.5 1211.08 1211.08 1204.69 1204.69 1198.34 1198.34 1192.02 1192.02 1185.74 1185.74 1179.49 1179.49 1173.28 1173.28 1167.11 1167.11 1160.97 1160.97 1154.87 1154.87 1148.8 1148.8 1142.76 1142.76 1136.76 1136.76 1130.79 1130.79 1124.86 1124.86 1118.96 1118.96 1113.09 1113.09 1107.26 1107.26 1101.45 1101.45 1095.69 1095.69 1089.95 1089.95 1084.24 1084.24 1078.57 1078.57 1072.93 1072.93 1067.32 1067.32 1061.74 1061.74 1056.2 1056.2 1050.68 1050.68 1045.19 1045.19 1039.74 1039.74 1034.32 1034.32 1028.92 1028.92 1023.56 1023.56 1018.22 1018.22 1012.92 1012.92 1007.64 1007.64 1002.39 1002.39 997.175 997.175 991.986 991.986 986.825 986.825 981.693 981.693 976.589 976.589 971.513 971.513 966.465 966.465 961.444 961.444 956.451 956.451 951.485 951.485 946.546 946.546 941.635 941.635 936.75 936.75 931.891 931.891 927.059 927.059 922.253 922.253 917.474 917.474 912.72 912.72 907.992 907.992 903.289 903.289 898.612 898.612 893.96 893.96 889.334 889.334 884.732 884.732 880.155 880.155 875.602 875.602 871.074 871.074 866.571 866.571 862.091 862.091 857.635 857.635 853.203 853.203 848.795 848.795 844.411 844.411 840.049 840.049 835.711 835.711 831.396 831.396 827.104 827.104 822.835 822.835 818.589 818.589 814.364 814.364 810.162 810.162 805.983 805.983 801.825 801.825 797.69 797.69 793.576 793.576 789.484 789.484 785.413 785.413 781.363 781.363 777.335 777.335 773.328 773.328 769.342 769.342 765.377 765.377 761.432 761.432 757.508 757.508 753.605 753.605 749.722 749.722 745.859 745.859 742.016 742.016 738.193 738.193 734.389 734.389 730.606 730.606 726.842 726.842 723.097 723.097 719.372 719.372 715.666 715.666 711.979 711.979 708.311 708.311 704.662 704.662 701.031 701.031 697.419 697.419 693.826 693.826 690.251 690.251 686.694 686.694 683.156 683.156 679.635 679.635 676.132 676.132 672.647 672.647 669.18 669.18 665.73 665.73 662.298 662.298 658.883 658.883 655.485 655.485 652.105 652.105 648.741 648.741 645.394 645.394 642.064 642.064 638.751 638.751 635.454 635.454 632.173 632.173 628.909 628.909 625.661 625.661 622.429 622.429 619.213 619.213 616.013 616.013 612.829 612.829 609.66 609.66 606.507 606.507 603.37 603.37 600.248 600.248 597.141 597.141 594.049 594.049 590.973 590.973 587.911 587.911 584.865 584.865 581.833 581.833 578.816 578.816 575.814 575.814 572.826 572.826 569.852 569.852 566.893 566.893 563.948 563.948 561.016 561.016 558.098 558.098 555.194 555.194 552.303 552.303 549.426 549.426 546.561 546.561 543.709 543.709 540.869 540.869 538.042 538.042 535.227 535.227 532.424 532.424 529.632 529.632 526.852 526.852 524.083 524.083 521.326 521.326 518.58 518.58 515.845 515.845 513.121 513.121 510.409 510.409 507.708 507.708 505.019 505.019 502.342 502.342 499.678 499.678 497.027 497.027 494.39 494.39 491.766 491.766 489.158 489.158 486.564 486.564 483.987 483.987 481.426 481.426 478.882 478.882 476.356 476.356 473.847 473.847 471.357 471.357 468.886 468.886 466.434 466.434 464.001 464.001 461.587 461.587 459.193 459.193 456.819 456.819 454.464 454.464 452.129 452.129 449.813 449.813 447.516 447.516 445.238 445.238 442.979 442.979 440.738 440.738 438.515 438.515 436.309 436.309 434.119 434.119 431.945 431.945 429.786 429.786 427.641 427.641 425.509 425.509 423.388 423.388 421.277 421.277 419.175 419.175 417.08 417.08 414.991 414.991 412.907 412.907 410.825 410.825 408.745 408.745 406.665 406.665 404.584 404.584 402.5 402.5 400.413 400.413 398.321 398.321 396.224 396.224 394.121 394.121 392.013 392.013 389.898 389.898 387.777 387.777 385.651 385.651 383.52 383.52 381.384 381.384 379.245 379.245 377.104 377.104 374.962 374.962 372.82 372.82 370.68 370.68 368.542 368.542 366.409 366.409 364.283 364.283 362.164 362.164 360.053 360.053 357.953 357.953 355.863 355.863 353.787 353.787 351.723 351.723 349.673 349.673 347.637 347.637 345.617 345.617 343.612 343.612 341.622 341.622 339.648 339.648 337.69 337.69 335.746 335.746 333.818 333.818 331.905 331.905 330.006 330.006 328.12 328.12 326.249 326.249 324.39 324.39 322.544 322.544 320.709 320.709 318.887 318.887 317.075 317.075 315.274 315.274 313.483 313.483 311.702 311.702 309.931 309.931 308.169 308.169 306.415 306.415 304.671 304.671 302.935 302.935 301.207 301.207 299.487 299.487 297.775 297.775 296.071 296.071 294.374 294.374 292.685 292.685 291.004 291.004 289.33 289.33 287.663 287.663 286.003 286.003 284.351 284.351 282.706 282.706 281.067 281.067 279.436 279.436 277.812 277.812 276.195 276.195 274.585 274.585 272.982 272.982 271.385 271.385 269.795 269.795 268.212 268.212 266.636 266.636 265.066 265.066 263.504 263.504 261.947 261.947 260.397 260.397 258.854 258.854 257.318 257.318 255.787 255.787 254.264 254.264 252.746 252.746 251.235 251.235 249.731 249.731 248.232 248.232 246.74 246.74 245.254 245.254 243.775 243.775 242.301 242.301 240.834 240.834 239.373 239.373 237.918 237.918 236.469 236.469 235.025 235.025 233.588 233.588 232.157 232.157 230.732 230.732 229.313 229.313 227.899 227.899 226.492 226.492 225.09 225.09 223.694 223.694 222.303 222.303 220.919 220.919 219.54 219.54 218.166 218.166 216.799 216.799 215.437 215.437 214.08 214.08 212.729 212.729 211.384 211.384 210.044 210.044 208.709 208.709 207.38 207.38 206.056 206.056 204.738 204.738 203.425 203.425 202.117 202.117 200.814 200.814 199.517 199.517 198.225 198.225 196.939 196.939 195.657 195.657 194.381 194.381 193.109 193.109 191.843 191.843 190.582 190.582 189.326 189.326 188.075 188.075 186.829 186.829 185.588 185.588 184.352 184.352 183.121 183.121 181.894 181.894 180.673 180.673 179.457 179.457 178.245 178.245 177.038 177.038 175.836 175.836 174.639 174.639 173.446 173.446 172.258 172.258 171.075 171.075 169.896 169.896 168.722 168.722 167.553 167.553 166.388 166.388 165.228 165.228 164.073 164.073 162.922 162.922 161.775 161.775 160.633 160.633 159.496 159.496 158.363 158.363 157.234 157.234 156.11 156.11 154.99 154.99 153.874 153.874 152.763 152.763 151.656 151.656 150.553 150.553 149.455 149.455 148.361 148.361 147.271 147.271 146.186 146.186 145.104 145.104 144.027 144.027 142.954 142.954 141.885 141.885 140.82 140.82 139.759 139.759 138.703 138.703 137.65 137.65 136.601 136.601 135.557 135.557 134.516 134.516 133.48 133.48 132.447 132.447 131.418 131.418 130.394 130.394 129.373 129.373 128.356 128.356 127.343 127.343 126.334 126.334 125.328 125.328 124.327 124.327 123.329 123.329 122.335 122.335 121.344 121.344 120.358 120.358 119.375 119.375 118.396 118.396 117.421 117.421 116.449 116.449 115.481 115.481 114.517 114.517 113.556 113.556 112.599 112.599 111.645 111.645 110.695 110.695 109.749 109.749 108.806 108.806 107.866 107.866 106.931 106.931 105.998 105.998 105.069 105.069 104.144 104.144 103.222 103.222 102.303 102.303 101.388 101.388 100.477 100.477 99.5683 99.5683 98.6634 98.6634 97.7617 97.7617 96.8635 96.8635 95.9685 95.9685 95.0769 95.0769 94.1886 94.1886 93.3035 93.3035 92.4217 92.4217 91.5431 91.5431 90.6678 90.6678 89.7957 89.7957 88.9269 88.9269 88.0612 88.0612 87.1986 87.1986 86.3393 86.3393 85.4831 85.4831 84.63 84.63 83.7801 83.7801 82.9333 82.9333 82.0895 82.0895 81.2489 81.2489 80.4113 80.4113 79.5767 79.5767 78.7452 78.7452 77.9167 77.9167 77.0913 77.0913 76.2688 76.2688 75.4494 75.4494 74.6329 74.6329 73.8193 73.8193 73.0087 73.0087 72.2011 72.2011 71.3963 71.3963 70.5945 70.5945 69.7956 69.7956 68.9995 68.9995 68.2063 68.2063 67.416 67.416 66.6286 66.6286 65.8439 65.8439 65.0621 65.0621 64.2831 64.2831 63.5069 63.5069 62.7335 62.7335 61.9628 61.9628 61.1949 61.1949 60.4298 60.4298 59.6674 59.6674 58.9077 58.9077 58.1507 58.1507 57.3965 57.3965 56.6449 56.6449 55.896 55.896 55.1498 55.1498 54.4062 54.4062 53.6653 53.6653 52.927 52.927 52.1913 52.1913 51.4583 51.4583 50.7278 50.7278 50 50 49.2747 49.2747 48.552 48.552 47.8318 47.8318 47.1142 47.1142 46.3991 46.3991 45.6865 45.6865 44.9765 44.9765 44.2689 44.2689 43.5639 43.5639 42.8613 42.8613 42.1612 42.1612 41.4636 41.4636 40.7684 40.7684 40.0756 40.0756 39.3853 39.3853 38.6974 38.6974 38.0119 38.0119 37.3288 37.3288 36.6481 36.6481 35.9698 35.9698 35.2939 35.2939 34.6203 34.6203 33.949 33.949 33.2801 33.2801 32.6136 32.6136 31.9493 31.9493 31.2874 31.2874 30.6277 30.6277 29.9704 29.9704 29.3153 29.3153 28.6626 28.6626 28.012 28.012 27.3638 27.3638 26.7178 26.7178 26.074 26.074 25.4324 25.4324 24.7931 24.7931 24.156 24.156 23.521 23.521 22.8883 22.8883 22.2577 22.2577 21.6293 21.6293 21.0031 21.0031 20.3791 20.3791 19.7571 19.7571 19.1374 19.1374 18.5197 18.5197 17.9042 17.9042 17.2908 17.2908 16.6795 16.6795 16.0702 16.0702 15.4631 15.4631 14.8581 14.8581 14.2551 14.2551 13.6542 13.6542 13.0553 13.0553 12.4585 12.4585 11.8637 11.8637 11.2709 11.2709 10.6802 10.6802 10.0915 10.0915 9.50473 9.50473 8.92 8.92 8.33727 8.33727 7.75651 7.75651 7.17773 7.17773 6.6009 6.6009 6.02604 6.02604 5.45313 5.45313 4.88215 4.88215 4.31311 4.31311 3.746 3.746 3.1808 3.1808 2.61752 2.61752 2.05613 2.05613 1.49665 1.49665 0.939047 0.939047 0.383328 0.383328 -0.170517 -0.170517 -0.722497 -0.722497 -1.27262 -1.27262 -1.82089 -1.82089 -2.36732 -2.36732 -2.91191 -2.91191 -3.45467 -3.45467 -3.9956 -3.9956 -4.53473 -4.53473 -5.07204 -5.07204 -5.60756 -5.60756 -6.14128 -6.14128 -6.67321 -6.67321 -7.20336 -7.20336 -7.73174 -7.73174 -8.25836 -8.25836 -8.78321 -8.78321 -9.30632 -9.30632 -9.82767 -9.82767 -10.3473 -10.3473 -10.8652 -10.8652 -11.3813 -11.3813 -11.8958 -11.8958 -12.4085 -12.4085 -12.9195 -12.9195 -13.4289 -13.4289 -13.9365 -13.9365 -14.4424 -14.4424 -14.9467 -14.9467 -15.4493 -15.4493 -15.9502 -15.9502 -16.4495 -16.4495 -16.9471 -16.9471 -17.4431 -17.4431 -17.9374 -17.9374 -18.4301 -18.4301 -18.9212 -18.9212 -19.4106 -19.4106 -19.8984 -19.8984 -20.3846 -20.3846 -20.8692 -20.8692 -21.3523 -21.3523 -21.8337 -21.8337 -22.3135 -22.3135 -22.7918 -22.7918 -23.2684 -23.2684 -23.7436 -23.7436 -24.2171 -24.2171 -24.6891 -24.6891 -25.1596 -25.1596 -25.6285 -25.6285 -26.0958 -26.0958 -26.5616 -26.5616 -27.0259 -27.0259 -27.4887 -27.4887 -27.95 -27.95 -28.4098 -28.4098 -28.868 -28.868 -29.3248 -29.3248 -29.78 -29.78 -30.2338 -30.2338 -30.6861 -30.6861 -31.1369 -31.1369 -31.5863 -31.5863 -32.0341 -32.0341 -32.4806 -32.4806 -32.9255 -32.9255 -33.3691 -33.3691 -33.8111 -33.8111 -34.2518 -34.2518 -34.691 -34.691 -35.1288 -35.1288 -35.5651 -35.5651 -36.0001 -36.0001 -36.4336 -36.4336 -36.8657 -36.8657 -37.2964 -37.2964 -37.7257 -37.7257 -38.1537 -38.1537 -38.5802 -38.5802 -39.0054 -39.0054 -39.4292 -39.4292 -39.8516 -39.8516 -40.2727 -40.2727 -40.6924 -40.6924 -41.1107 -41.1107 -41.5277 -41.5277 -41.9433 -41.9433 -42.3577 -42.3577 -42.7706 -42.7706 -43.1823 -43.1823 -43.5926 -43.5926 -44.0016 -44.0016 -44.4092 -44.4092 -44.8156 -44.8156 -45.2207 -45.2207 -45.6244 -45.6244 -46.0269 -46.0269 -46.428 -46.428 -46.8279 -46.8279 -47.2265 -47.2265 -47.6238 -47.6238 -48.0199 -48.0199 -48.4146 -48.4146 -48.8081 -48.8081 -49.2004 -49.2004 -49.5914 -49.5914 -49.9811 -49.9811 -50.3696 -50.3696 -50.7569 -50.7569 -51.1429 -51.1429 -51.5277 -51.5277 -51.9112 -51.9112 -52.2936 -52.2936 -52.6747 -52.6747 -53.0546 -53.0546 -53.4332 -53.4332 -53.8107 -53.8107 -54.187 -54.187 -54.5621 -54.5621 -54.9359 -54.9359 -55.3086 -55.3086 -55.6801 -55.6801 -56.0505 -56.0505 -56.4196 -56.4196 -56.7876 -56.7876 -57.1544 -57.1544 -57.52 -57.52 -57.8845 -57.8845 -58.2478 -58.2478 -58.61 -58.61 -58.971 -58.971 -59.3309 -59.3309 -59.6897 -59.6897 -60.0473 -60.0473 -60.4037 -60.4037 -60.7591 -60.7591 -61.1133 -61.1133 -61.4664 -61.4664 -61.8184 -61.8184 -62.1693 -62.1693 -62.519 -62.519 -62.8677 -62.8677 -63.2152 -63.2152 -63.5617 -63.5617 -63.9071 -63.9071 -64.2513 -64.2513 -64.5945 -64.5945 -64.9367 -64.9367 -65.2777 -65.2777 -65.6177 -65.6177 -65.9565 -65.9565 -66.2944 -66.2944 -66.6311 -66.6311 -66.9668 -66.9668 -67.3015 -67.3015 -67.6351 -67.6351 -67.9676 -67.9676 -68.2991 -68.2991 -68.6296 -68.6296 -68.959 -68.959 -69.2874 -69.2874 -69.6148 -69.6148 -69.9411 -69.9411 -70.2664 -70.2664 -70.5907 -70.5907 -70.914 -70.914 -71.2363 -71.2363 -71.5575 -71.5575 -71.8778 -71.8778 -72.197 -72.197 -72.5153 -72.5153 -72.8326 -72.8326 -73.1488 -73.1488 -73.4641 -73.4641 -73.7784 -73.7784 -74.0917 -74.0917 -74.404 -74.404 -74.7154 -74.7154 -75.0258 -75.0258 -75.3352 -75.3352 -75.6437 -75.6437 -75.9512 -75.9512 -76.2577 -76.2577 -76.5633 -76.5633 -76.8679 -76.8679 -77.1716 -77.1716 -77.4743 -77.4743 -77.7761 -77.7761 -78.077 -78.077 -78.3769 -78.3769 -78.6759 -78.6759 -78.9739 -78.9739 -79.2711 -79.2711 -79.5673 -79.5673 -79.8625 -79.8625 -80.1569 -80.1569 -80.4504 -80.4504 -80.7429 -80.7429 -81.0346 -81.0346 -81.3253 -81.3253 -81.6151 -81.6151 -81.9041 -81.9041 -82.1921 -82.1921 -82.4793 -82.4793 -82.7655 -82.7655 -83.0509 -83.0509 -83.3354 -83.3354 -83.619 -83.619 -83.9017 -83.9017 -84.1836 -84.1836 -84.4645 -84.4645 -84.7447 -84.7447 -85.0239 -85.0239 -85.3023 -85.3023 -85.5798 -85.5798 -85.8565 -85.8565 -86.1323 -86.1323 -86.4073 -86.4073 -86.6814 -86.6814 -86.9547 -86.9547 -87.2271 -87.2271 -87.4987 -87.4987 -87.7694 -87.7694 -88.0393 -88.0393 -88.3084 -88.3084 -88.5767 -88.5767 -88.8441 -88.8441 -89.1107 -89.1107 -89.3765 -89.3765 -89.6414 -89.6414 -89.9056 -89.9056 -90.1689 -90.1689 -90.4314 -90.4314 -90.6932 -90.6932 -90.9541 -90.9541 -91.2142 -91.2142 -91.4735 -91.4735 -91.732 -91.732 -91.9897 -91.9897 -92.2466 -92.2466 -92.5028 -92.5028 -92.7581 -92.7581 -93.0127 -93.0127 -93.2665 -93.2665 -93.5195 -93.5195 -93.7717 -93.7717 -94.0232 -94.0232 -94.2739 -94.2739 -94.5238 -94.5238 -94.7729 -94.7729 -95.0213 -95.0213 -95.2689 -95.2689 -95.5158 -95.5158 -95.7619 -95.7619 -96.0073 -96.0073 -96.2519 -96.2519 -96.4957 -96.4957 -96.7388 -96.7388 -96.9812 -96.9812 -97.2228 -97.2228 -97.4637 -97.4637 -97.7038 -97.7038 -97.9433 -97.9433 -98.1819 -98.1819 -98.4199 -98.4199 -98.6571 -98.6571 -98.8936 -98.8936 -99.1294 -99.1294 -99.3644 -99.3644 -99.5988 -99.5988 -99.8324 -99.8324 -100.065 -100.065 -100.298 -100.298 -100.529 -100.529 -100.76 -100.76 -100.99 -100.99 -101.219 -101.219 -101.448 -101.448 -101.676 -101.676 -101.903 -101.903 -102.13 -102.13 -102.356 -102.356 -102.581 -102.581 -102.805 -102.805 -103.029 -103.029 -103.252 -103.252 -103.475 -103.475 -103.697 -103.697 -103.918 -103.918 -104.138 -104.138 -104.358 -104.358 -104.577 -104.577 -104.795 -104.795 -105.013 -105.013 -105.23 -105.23 -105.447 -105.447 -105.663 -105.663 -105.878 -105.878 -106.092 -106.092 -106.306 -106.306 -106.519 -106.519 -106.732 -106.732 -106.944 -106.944 -107.155 -107.155 -107.365 -107.365 -107.575 -107.575 -10