# vtk DataFile Version 3.0
#This file was generated by the deal.II library on 2020/9/6 at 2:52:53
ASCII
DATASET UNSTRUCTURED_GRID

POINTS 4096 double
1.5 0 0
1.59692 0 0
1.59692 0 0
1.69385 0 0
1.69385 0 0
1.79077 0 0
1.79077 0 0
1.8877 0 0
1.8877 0 0
1.98462 0 0
1.98462 0 0
2.08154 0 0
2.08154 0 0
2.17847 0 0
2.17847 0 0
2.27539 0 0
2.27539 0 0
2.37231 0 0
2.37231 0 0
2.46924 0 0
2.46924 0 0
2.56616 0 0
2.56616 0 0
2.66309 0 0
2.66309 0 0
2.76001 0 0
2.76001 0 0
2.85693 0 0
2.85693 0 0
2.95386 0 0
2.95386 0 0
3.05078 0 0
3.05078 0 0
3.14771 0 0
3.14771 0 0
3.24463 0 0
3.24463 0 0
3.34155 0 0
3.34155 0 0
3.43848 0 0
3.43848 0 0
3.5354 0 0
3.5354 0 0
3.63232 0 0
3.63232 0 0
3.72925 0 0
3.72925 0 0
3.82617 0 0
3.82617 0 0
3.9231 0 0
3.9231 0 0
4.02002 0 0
4.02002 0 0
4.11694 0 0
4.11694 0 0
4.21387 0 0
4.21387 0 0
4.31079 0 0
4.31079 0 0
4.40771 0 0
4.40771 0 0
4.50464 0 0
4.50464 0 0
4.60156 0 0
4.60156 0 0
4.69849 0 0
4.69849 0 0
4.79541 0 0
4.79541 0 0
4.89233 0 0
4.89233 0 0
4.98926 0 0
4.98926 0 0
5.08618 0 0
5.08618 0 0
5.18311 0 0
5.18311 0 0
5.28003 0 0
5.28003 0 0
5.37695 0 0
5.37695 0 0
5.47388 0 0
5.47388 0 0
5.5708 0 0
5.5708 0 0
5.66772 0 0
5.66772 0 0
5.76465 0 0
5.76465 0 0
5.86157 0 0
5.86157 0 0
5.9585 0 0
5.9585 0 0
6.05542 0 0
6.05542 0 0
6.15234 0 0
6.15234 0 0
6.24927 0 0
6.24927 0 0
6.34619 0 0
6.34619 0 0
6.44312 0 0
6.44312 0 0
6.54004 0 0
6.54004 0 0
6.63696 0 0
6.63696 0 0
6.73389 0 0
6.73389 0 0
6.83081 0 0
6.83081 0 0
6.92773 0 0
6.92773 0 0
7.02466 0 0
7.02466 0 0
7.12158 0 0
7.12158 0 0
7.21851 0 0
7.21851 0 0
7.31543 0 0
7.31543 0 0
7.41235 0 0
7.41235 0 0
7.50928 0 0
7.50928 0 0
7.6062 0 0
7.6062 0 0
7.70312 0 0
7.70312 0 0
7.80005 0 0
7.80005 0 0
7.89697 0 0
7.89697 0 0
7.9939 0 0
7.9939 0 0
8.09082 0 0
8.09082 0 0
8.18774 0 0
8.18774 0 0
8.28467 0 0
8.28467 0 0
8.38159 0 0
8.38159 0 0
8.47852 0 0
8.47852 0 0
8.57544 0 0
8.57544 0 0
8.67236 0 0
8.67236 0 0
8.76929 0 0
8.76929 0 0
8.86621 0 0
8.86621 0 0
8.96313 0 0
8.96313 0 0
9.06006 0 0
9.06006 0 0
9.15698 0 0
9.15698 0 0
9.25391 0 0
9.25391 0 0
9.35083 0 0
9.35083 0 0
9.44775 0 0
9.44775 0 0
9.54468 0 0
9.54468 0 0
9.6416 0 0
9.6416 0 0
9.73853 0 0
9.73853 0 0
9.83545 0 0
9.83545 0 0
9.93237 0 0
9.93237 0 0
10.0293 0 0
10.0293 0 0
10.1262 0 0
10.1262 0 0
10.2231 0 0
10.2231 0 0
10.3201 0 0
10.3201 0 0
10.417 0 0
10.417 0 0
10.5139 0 0
10.5139 0 0
10.6108 0 0
10.6108 0 0
10.7078 0 0
10.7078 0 0
10.8047 0 0
10.8047 0 0
10.9016 0 0
10.9016 0 0
10.9985 0 0
10.9985 0 0
11.0955 0 0
11.0955 0 0
11.1924 0 0
11.1924 0 0
11.2893 0 0
11.2893 0 0
11.3862 0 0
11.3862 0 0
11.4832 0 0
11.4832 0 0
11.5801 0 0
11.5801 0 0
11.677 0 0
11.677 0 0
11.7739 0 0
11.7739 0 0
11.8708 0 0
11.8708 0 0
11.9678 0 0
11.9678 0 0
12.0647 0 0
12.0647 0 0
12.1616 0 0
12.1616 0 0
12.2585 0 0
12.2585 0 0
12.3555 0 0
12.3555 0 0
12.4524 0 0
12.4524 0 0
12.5493 0 0
12.5493 0 0
12.6462 0 0
12.6462 0 0
12.7432 0 0
12.7432 0 0
12.8401 0 0
12.8401 0 0
12.937 0 0
12.937 0 0
13.0339 0 0
13.0339 0 0
13.1309 0 0
13.1309 0 0
13.2278 0 0
13.2278 0 0
13.3247 0 0
13.3247 0 0
13.4216 0 0
13.4216 0 0
13.5186 0 0
13.5186 0 0
13.6155 0 0
13.6155 0 0
13.7124 0 0
13.7124 0 0
13.8093 0 0
13.8093 0 0
13.9062 0 0
13.9062 0 0
14.0032 0 0
14.0032 0 0
14.1001 0 0
14.1001 0 0
14.197 0 0
14.197 0 0
14.2939 0 0
14.2939 0 0
14.3909 0 0
14.3909 0 0
14.4878 0 0
14.4878 0 0
14.5847 0 0
14.5847 0 0
14.6816 0 0
14.6816 0 0
14.7786 0 0
14.7786 0 0
14.8755 0 0
14.8755 0 0
14.9724 0 0
14.9724 0 0
15.0693 0 0
15.0693 0 0
15.1663 0 0
15.1663 0 0
15.2632 0 0
15.2632 0 0
15.3601 0 0
15.3601 0 0
15.457 0 0
15.457 0 0
15.554 0 0
15.554 0 0
15.6509 0 0
15.6509 0 0
15.7478 0 0
15.7478 0 0
15.8447 0 0
15.8447 0 0
15.9417 0 0
15.9417 0 0
16.0386 0 0
16.0386 0 0
16.1355 0 0
16.1355 0 0
16.2324 0 0
16.2324 0 0
16.3293 0 0
16.3293 0 0
16.4263 0 0
16.4263 0 0
16.5232 0 0
16.5232 0 0
16.6201 0 0
16.6201 0 0
16.717 0 0
16.717 0 0
16.814 0 0
16.814 0 0
16.9109 0 0
16.9109 0 0
17.0078 0 0
17.0078 0 0
17.1047 0 0
17.1047 0 0
17.2017 0 0
17.2017 0 0
17.2986 0 0
17.2986 0 0
17.3955 0 0
17.3955 0 0
17.4924 0 0
17.4924 0 0
17.5894 0 0
17.5894 0 0
17.6863 0 0
17.6863 0 0
17.7832 0 0
17.7832 0 0
17.8801 0 0
17.8801 0 0
17.9771 0 0
17.9771 0 0
18.074 0 0
18.074 0 0
18.1709 0 0
18.1709 0 0
18.2678 0 0
18.2678 0 0
18.3647 0 0
18.3647 0 0
18.4617 0 0
18.4617 0 0
18.5586 0 0
18.5586 0 0
18.6555 0 0
18.6555 0 0
18.7524 0 0
18.7524 0 0
18.8494 0 0
18.8494 0 0
18.9463 0 0
18.9463 0 0
19.0432 0 0
19.0432 0 0
19.1401 0 0
19.1401 0 0
19.2371 0 0
19.2371 0 0
19.334 0 0
19.334 0 0
19.4309 0 0
19.4309 0 0
19.5278 0 0
19.5278 0 0
19.6248 0 0
19.6248 0 0
19.7217 0 0
19.7217 0 0
19.8186 0 0
19.8186 0 0
19.9155 0 0
19.9155 0 0
20.0125 0 0
20.0125 0 0
20.1094 0 0
20.1094 0 0
20.2063 0 0
20.2063 0 0
20.3032 0 0
20.3032 0 0
20.4001 0 0
20.4001 0 0
20.4971 0 0
20.4971 0 0
20.594 0 0
20.594 0 0
20.6909 0 0
20.6909 0 0
20.7878 0 0
20.7878 0 0
20.8848 0 0
20.8848 0 0
20.9817 0 0
20.9817 0 0
21.0786 0 0
21.0786 0 0
21.1755 0 0
21.1755 0 0
21.2725 0 0
21.2725 0 0
21.3694 0 0
21.3694 0 0
21.4663 0 0
21.4663 0 0
21.5632 0 0
21.5632 0 0
21.6602 0 0
21.6602 0 0
21.7571 0 0
21.7571 0 0
21.854 0 0
21.854 0 0
21.9509 0 0
21.9509 0 0
22.0479 0 0
22.0479 0 0
22.1448 0 0
22.1448 0 0
22.2417 0 0
22.2417 0 0
22.3386 0 0
22.3386 0 0
22.4355 0 0
22.4355 0 0
22.5325 0 0
22.5325 0 0
22.6294 0 0
22.6294 0 0
22.7263 0 0
22.7263 0 0
22.8232 0 0
22.8232 0 0
22.9202 0 0
22.9202 0 0
23.0171 0 0
23.0171 0 0
23.114 0 0
23.114 0 0
23.2109 0 0
23.2109 0 0
23.3079 0 0
23.3079 0 0
23.4048 0 0
23.4048 0 0
23.5017 0 0
23.5017 0 0
23.5986 0 0
23.5986 0 0
23.6956 0 0
23.6956 0 0
23.7925 0 0
23.7925 0 0
23.8894 0 0
23.8894 0 0
23.9863 0 0
23.9863 0 0
24.0833 0 0
24.0833 0 0
24.1802 0 0
24.1802 0 0
24.2771 0 0
24.2771 0 0
24.374 0 0
24.374 0 0
24.4709 0 0
24.4709 0 0
24.5679 0 0
24.5679 0 0
24.6648 0 0
24.6648 0 0
24.7617 0 0
24.7617 0 0
24.8586 0 0
24.8586 0 0
24.9556 0 0
24.9556 0 0
25.0525 0 0
25.0525 0 0
25.1494 0 0
25.1494 0 0
25.2463 0 0
25.2463 0 0
25.3433 0 0
25.3433 0 0
25.4402 0 0
25.4402 0 0
25.5371 0 0
25.5371 0 0
25.634 0 0
25.634 0 0
25.731 0 0
25.731 0 0
25.8279 0 0
25.8279 0 0
25.9248 0 0
25.9248 0 0
26.0217 0 0
26.0217 0 0
26.1187 0 0
26.1187 0 0
26.2156 0 0
26.2156 0 0
26.3125 0 0
26.3125 0 0
26.4094 0 0
26.4094 0 0
26.5063 0 0
26.5063 0 0
26.6033 0 0
26.6033 0 0
26.7002 0 0
26.7002 0 0
26.7971 0 0
26.7971 0 0
26.894 0 0
26.894 0 0
26.991 0 0
26.991 0 0
27.0879 0 0
27.0879 0 0
27.1848 0 0
27.1848 0 0
27.2817 0 0
27.2817 0 0
27.3787 0 0
27.3787 0 0
27.4756 0 0
27.4756 0 0
27.5725 0 0
27.5725 0 0
27.6694 0 0
27.6694 0 0
27.7664 0 0
27.7664 0 0
27.8633 0 0
27.8633 0 0
27.9602 0 0
27.9602 0 0
28.0571 0 0
28.0571 0 0
28.1541 0 0
28.1541 0 0
28.251 0 0
28.251 0 0
28.3479 0 0
28.3479 0 0
28.4448 0 0
28.4448 0 0
28.5417 0 0
28.5417 0 0
28.6387 0 0
28.6387 0 0
28.7356 0 0
28.7356 0 0
28.8325 0 0
28.8325 0 0
28.9294 0 0
28.9294 0 0
29.0264 0 0
29.0264 0 0
29.1233 0 0
29.1233 0 0
29.2202 0 0
29.2202 0 0
29.3171 0 0
29.3171 0 0
29.4141 0 0
29.4141 0 0
29.511 0 0
29.511 0 0
29.6079 0 0
29.6079 0 0
29.7048 0 0
29.7048 0 0
29.8018 0 0
29.8018 0 0
29.8987 0 0
29.8987 0 0
29.9956 0 0
29.9956 0 0
30.0925 0 0
30.0925 0 0
30.1895 0 0
30.1895 0 0
30.2864 0 0
30.2864 0 0
30.3833 0 0
30.3833 0 0
30.4802 0 0
30.4802 0 0
30.5771 0 0
30.5771 0 0
30.6741 0 0
30.6741 0 0
30.771 0 0
30.771 0 0
30.8679 0 0
30.8679 0 0
30.9648 0 0
30.9648 0 0
31.0618 0 0
31.0618 0 0
31.1587 0 0
31.1587 0 0
31.2556 0 0
31.2556 0 0
31.3525 0 0
31.3525 0 0
31.4495 0 0
31.4495 0 0
31.5464 0 0
31.5464 0 0
31.6433 0 0
31.6433 0 0
31.7402 0 0
31.7402 0 0
31.8372 0 0
31.8372 0 0
31.9341 0 0
31.9341 0 0
32.031 0 0
32.031 0 0
32.1279 0 0
32.1279 0 0
32.2249 0 0
32.2249 0 0
32.3218 0 0
32.3218 0 0
32.4187 0 0
32.4187 0 0
32.5156 0 0
32.5156 0 0
32.6125 0 0
32.6125 0 0
32.7095 0 0
32.7095 0 0
32.8064 0 0
32.8064 0 0
32.9033 0 0
32.9033 0 0
33.0002 0 0
33.0002 0 0
33.0972 0 0
33.0972 0 0
33.1941 0 0
33.1941 0 0
33.291 0 0
33.291 0 0
33.3879 0 0
33.3879 0 0
33.4849 0 0
33.4849 0 0
33.5818 0 0
33.5818 0 0
33.6787 0 0
33.6787 0 0
33.7756 0 0
33.7756 0 0
33.8726 0 0
33.8726 0 0
33.9695 0 0
33.9695 0 0
34.0664 0 0
34.0664 0 0
34.1633 0 0
34.1633 0 0
34.2603 0 0
34.2603 0 0
34.3572 0 0
34.3572 0 0
34.4541 0 0
34.4541 0 0
34.551 0 0
34.551 0 0
34.6479 0 0
34.6479 0 0
34.7449 0 0
34.7449 0 0
34.8418 0 0
34.8418 0 0
34.9387 0 0
34.9387 0 0
35.0356 0 0
35.0356 0 0
35.1326 0 0
35.1326 0 0
35.2295 0 0
35.2295 0 0
35.3264 0 0
35.3264 0 0
35.4233 0 0
35.4233 0 0
35.5203 0 0
35.5203 0 0
35.6172 0 0
35.6172 0 0
35.7141 0 0
35.7141 0 0
35.811 0 0
35.811 0 0
35.908 0 0
35.908 0 0
36.0049 0 0
36.0049 0 0
36.1018 0 0
36.1018 0 0
36.1987 0 0
36.1987 0 0
36.2957 0 0
36.2957 0 0
36.3926 0 0
36.3926 0 0
36.4895 0 0
36.4895 0 0
36.5864 0 0
36.5864 0 0
36.6833 0 0
36.6833 0 0
36.7803 0 0
36.7803 0 0
36.8772 0 0
36.8772 0 0
36.9741 0 0
36.9741 0 0
37.071 0 0
37.071 0 0
37.168 0 0
37.168 0 0
37.2649 0 0
37.2649 0 0
37.3618 0 0
37.3618 0 0
37.4587 0 0
37.4587 0 0
37.5557 0 0
37.5557 0 0
37.6526 0 0
37.6526 0 0
37.7495 0 0
37.7495 0 0
37.8464 0 0
37.8464 0 0
37.9434 0 0
37.9434 0 0
38.0403 0 0
38.0403 0 0
38.1372 0 0
38.1372 0 0
38.2341 0 0
38.2341 0 0
38.3311 0 0
38.3311 0 0
38.428 0 0
38.428 0 0
38.5249 0 0
38.5249 0 0
38.6218 0 0
38.6218 0 0
38.7188 0 0
38.7188 0 0
38.8157 0 0
38.8157 0 0
38.9126 0 0
38.9126 0 0
39.0095 0 0
39.0095 0 0
39.1064 0 0
39.1064 0 0
39.2034 0 0
39.2034 0 0
39.3003 0 0
39.3003 0 0
39.3972 0 0
39.3972 0 0
39.4941 0 0
39.4941 0 0
39.5911 0 0
39.5911 0 0
39.688 0 0
39.688 0 0
39.7849 0 0
39.7849 0 0
39.8818 0 0
39.8818 0 0
39.9788 0 0
39.9788 0 0
40.0757 0 0
40.0757 0 0
40.1726 0 0
40.1726 0 0
40.2695 0 0
40.2695 0 0
40.3665 0 0
40.3665 0 0
40.4634 0 0
40.4634 0 0
40.5603 0 0
40.5603 0 0
40.6572 0 0
40.6572 0 0
40.7542 0 0
40.7542 0 0
40.8511 0 0
40.8511 0 0
40.948 0 0
40.948 0 0
41.0449 0 0
41.0449 0 0
41.1418 0 0
41.1418 0 0
41.2388 0 0
41.2388 0 0
41.3357 0 0
41.3357 0 0
41.4326 0 0
41.4326 0 0
41.5295 0 0
41.5295 0 0
[...]
POINT_DATA 4096
SCALARS solution_0 double 1
LOOKUP_TABLE default
13382.5 13105.2 13105.2 12871.3 12871.3 12672.1 12672.1 12500.9 12500.9 12352.3 12352.3 12222.2 12222.2 12107.4 12107.4 12005.2 12005.2 11913.5 11913.5 11830.6 11830.6 11755.1 11755.1 11685.8 11685.8 11621.7 11621.7 11562 11562 11506 11506 11453.1 11453.1 11402.9 11402.9 11355 11355 11308.9 11308.9 11264.4 11264.4 11221.3 11221.3 11179.2 11179.2 11138.1 11138.1 11097.7 11097.7 11057.9 11057.9 11018.6 11018.6 10979.7 10979.7 10941.1 10941.1 10902.7 10902.7 10864.5 10864.5 10826.3 10826.3 10788.2 10788.2 10750.1 10750.1 10712 10712 10673.8 10673.8 10635.6 10635.6 10597.2 10597.2 10558.7 10558.7 10520 10520 10481.2 10481.2 10442.3 10442.3 10403.2 10403.2 10363.9 10363.9 10324.4 10324.4 10284.8 10284.8 10245 10245 10205 10205 10164.9 10164.9 10124.5 10124.5 10084 10084 10043.4 10043.4 10002.6 10002.6 9961.6 9961.6 9920.48 9920.48 9879.22 9879.22 9837.82 9837.82 9796.29 9796.29 9754.63 9754.63 9712.85 9712.85 9670.97 9670.97 9628.97 9628.97 9586.88 9586.88 9544.7 9544.7 9502.43 9502.43 9460.09 9460.09 9417.67 9417.67 9375.19 9375.19 9332.65 9332.65 9290.06 9290.06 9247.43 9247.43 9204.75 9204.75 9162.05 9162.05 9119.32 9119.32 9076.57 9076.57 9033.8 9033.8 8991.03 8991.03 8948.26 8948.26 8905.49 8905.49 8862.73 8862.73 8819.99 8819.99 8777.27 8777.27 8734.57 8734.57 8691.91 8691.91 8649.28 8649.28 8606.69 8606.69 8564.15 8564.15 8521.65 8521.65 8479.22 8479.22 8436.84 8436.84 8394.53 8394.53 8352.28 8352.28 8310.11 8310.11 8268.01 8268.01 8225.99 8225.99 8184.06 8184.06 8142.21 8142.21 8100.46 8100.46 8058.8 8058.8 8017.23 8017.23 7975.77 7975.77 7934.41 7934.41 7893.16 7893.16 7852.02 7852.02 7810.99 7810.99 7770.08 7770.08 7729.28 7729.28 7688.61 7688.61 7648.05 7648.05 7607.63 7607.63 7567.33 7567.33 7527.16 7527.16 7487.12 7487.12 7447.22 7447.22 7407.45 7407.45 7367.82 7367.82 7328.33 7328.33 7288.99 7288.99 7249.78 7249.78 7210.72 7210.72 7171.81 7171.81 7133.05 7133.05 7094.43 7094.43 7055.96 7055.96 7017.65 7017.65 6979.49 6979.49 6941.49 6941.49 6903.63 6903.63 6865.94 6865.94 6828.4 6828.4 6791.03 6791.03 6753.81 6753.81 6716.75 6716.75 6679.85 6679.85 6643.12 6643.12 6606.54 6606.54 6570.13 6570.13 6533.89 6533.89 6497.8 6497.8 6461.89 6461.89 6426.14 6426.14 6390.55 6390.55 6355.13 6355.13 6319.88 6319.88 6284.79 6284.79 6249.87 6249.87 6215.12 6215.12 6180.53 6180.53 6146.12 6146.12 6111.87 6111.87 6077.79 6077.79 6043.88 6043.88 6010.14 6010.14 5976.56 5976.56 5943.16 5943.16 5909.92 5909.92 5876.85 5876.85 5843.95 5843.95 5811.22 5811.22 5778.65 5778.65 5746.26 5746.26 5714.03 5714.03 5681.97 5681.97 5650.08 5650.08 5618.35 5618.35 5586.79 5586.79 5555.4 5555.4 5524.18 5524.18 5493.12 5493.12 5462.23 5462.23 5431.5 5431.5 5400.94 5400.94 5370.55 5370.55 5340.31 5340.31 5310.25 5310.25 5280.35 5280.35 5250.61 5250.61 5221.03 5221.03 5191.62 5191.62 5162.36 5162.36 5133.27 5133.27 5104.35 5104.35 5075.58 5075.58 5046.97 5046.97 5018.52 5018.52 4990.23 4990.23 4962.1 4962.1 4934.13 4934.13 4906.32 4906.32 4878.66 4878.66 4851.16 4851.16 4823.81 4823.81 4796.62 4796.62 4769.59 4769.59 4742.71 4742.71 4715.98 4715.98 4689.41 4689.41 4662.98 4662.98 4636.71 4636.71 4610.59 4610.59 4584.62 4584.62 4558.81 4558.81 4533.14 4533.14 4507.61 4507.61 4482.24 4482.24 4457.01 4457.01 4431.93 4431.93 4407 4407 4382.21 4382.21 4357.57 4357.57 4333.07 4333.07 4308.71 4308.71 4284.5 4284.5 4260.42 4260.42 4236.49 4236.49 4212.7 4212.7 4189.05 4189.05 4165.54 4165.54 4142.16 4142.16 4118.93 4118.93 4095.83 4095.83 4072.87 4072.87 4050.04 4050.04 4027.35 4027.35 4004.79 4004.79 3982.36 3982.36 3960.07 3960.07 3937.91 3937.91 3915.89 3915.89 3893.99 3893.99 3872.22 3872.22 3850.58 3850.58 3829.08 3829.08 3807.69 3807.69 3786.44 3786.44 3765.31 3765.31 3744.31 3744.31 3723.44 3723.44 3702.68 3702.68 3682.06 3682.06 3661.55 3661.55 3641.17 3641.17 3620.91 3620.91 3600.77 3600.77 3580.75 3580.75 3560.85 3560.85 3541.07 3541.07 3521.41 3521.41 3501.86 3501.86 3482.43 3482.43 3463.12 3463.12 3443.92 3443.92 3424.84 3424.84 3405.88 3405.88 3387.02 3387.02 3368.28 3368.28 3349.65 3349.65 3331.14 3331.14 3312.73 3312.73 3294.43 3294.43 3276.25 3276.25 3258.17 3258.17 3240.2 3240.2 3222.34 3222.34 3204.58 3204.58 3186.93 3186.93 3169.39 3169.39 3151.95 3151.95 3134.62 3134.62 3117.39 3117.39 3100.26 3100.26 3083.24 3083.24 3066.31 3066.31 3049.49 3049.49 3032.77 3032.77 3016.15 3016.15 2999.63 2999.63 2983.2 2983.2 2966.88 2966.88 2950.65 2950.65 2934.52 2934.52 2918.48 2918.48 2902.54 2902.54 2886.7 2886.7 2870.95 2870.95 2855.3 2855.3 2839.73 2839.73 2824.26 2824.26 2808.89 2808.89 2793.6 2793.6 2778.4 2778.4 2763.3 2763.3 2748.28 2748.28 2733.36 2733.36 2718.52 2718.52 2703.77 2703.77 2689.11 2689.11 2674.53 2674.53 2660.04 2660.04 2645.64 2645.64 2631.32 2631.32 2617.09 2617.09 2602.94 2602.94 2588.88 2588.88 2574.9 2574.9 2561 2561 2547.18 2547.18 2533.44 2533.44 2519.79 2519.79 2506.22 2506.22 2492.72 2492.72 2479.31 2479.31 2465.97 2465.97 2452.71 2452.71 2439.53 2439.53 2426.43 2426.43 2413.41 2413.41 2400.46 2400.46 2387.58 2387.58 2374.79 2374.79 2362.06 2362.06 2349.41 2349.41 2336.84 2336.84 2324.34 2324.34 2311.91 2311.91 2299.56 2299.56 2287.27 2287.27 2275.06 2275.06 2262.92 2262.92 2250.85 2250.85 2238.85 2238.85 2226.92 2226.92 2215.06 2215.06 2203.26 2203.26 2191.54 2191.54 2179.88 2179.88 2168.3 2168.3 2156.77 2156.77 2145.32 2145.32 2133.93 2133.93 2122.61 2122.61 2111.35 2111.35 2100.15 2100.15 2089.03 2089.03 2077.96 2077.96 2066.96 2066.96 2056.02 2056.02 2045.15 2045.15 2034.33 2034.33 2023.58 2023.58 2012.89 2012.89 2002.26 2002.26 1991.7 1991.7 1981.19 1981.19 1970.74 1970.74 1960.35 1960.35 1950.02 1950.02 1939.75 1939.75 1929.54 1929.54 1919.39 1919.39 1909.29 1909.29 1899.25 1899.25 1889.27 1889.27 1879.35 1879.35 1869.48 1869.48 1859.66 1859.66 1849.9 1849.9 1840.2 1840.2 1830.55 1830.55 1820.96 1820.96 1811.42 1811.42 1801.93 1801.93 1792.5 1792.5 1783.12 1783.12 1773.79 1773.79 1764.51 1764.51 1755.29 1755.29 1746.11 1746.11 1736.99 1736.99 1727.92 1727.92 1718.9 1718.9 1709.93 1709.93 1701.01 1701.01 1692.14 1692.14 1683.32 1683.32 1674.55 1674.55 1665.82 1665.82 1657.15 1657.15 1648.52 1648.52 1639.94 1639.94 1631.41 1631.41 1622.92 1622.92 1614.48 1614.48 1606.09 1606.09 1597.74 1597.74 1589.44 1589.44 1581.18 1581.18 1572.97 1572.97 1564.81 1564.81 1556.69 1556.69 1548.61 1548.61 1540.58 1540.58 1532.59 1532.59 1524.65 1524.65 1516.74 1516.74 1508.88 1508.88 1501.07 1501.07 1493.29 1493.29 1485.56 1485.56 1477.87 1477.87 1470.22 1470.22 1462.62 1462.62 1455.05 1455.05 1447.52 1447.52 1440.04 1440.04 1432.59 1432.59 1425.19 1425.19 1417.82 1417.82 1410.5 1410.5 1403.21 1403.21 1395.96 1395.96 1388.75 1388.75 1381.58 1381.58 1374.45 1374.45 1367.36 1367.36 1360.3 1360.3 1353.28 1353.28 1346.3 1346.3 1339.36 1339.36 1332.45 1332.45 1325.58 1325.58 1318.74 1318.74 1311.94 1311.94 1305.18 1305.18 1298.45 1298.45 1291.76 1291.76 1285.1 1285.1 1278.48 1278.48 1271.89 1271.89 1265.34 1265.34 1258.82 1258.82 1252.33 1252.33 1245.88 1245.88 1239.47 1239.47 1233.08 1233.08 1226.73 1226.73 1220.41 1220.41 1214.13 1214.13 1207.88 1207.88 1201.66 1201.66 1195.47 1195.47 1189.31 1189.31 1183.19 1183.19 1177.1 1177.1 1171.03 1171.03 1165 1165 1159.01 1159.01 1153.04 1153.04 1147.1 1147.1 1141.19 1141.19 1135.32 1135.32 1129.47 1129.47 1123.65 1123.65 1117.86 1117.86 1112.11 1112.11 1106.38 1106.38 1100.68 1100.68 1095.01 1095.01 1089.37 1089.37 1083.75 1083.75 1078.17 1078.17 1072.61 1072.61 1067.08 1067.08 1061.58 1061.58 1056.11 1056.11 1050.66 1050.66 1045.24 1045.24 1039.85 1039.85 1034.49 1034.49 1029.15 1029.15 1023.84 1023.84 1018.56 1018.56 1013.3 1013.3 1008.07 1008.07 1002.86 1002.86 997.684 997.684 992.53 992.53 987.402 987.402 982.299 982.299 977.222 977.222 972.169 972.169 967.142 967.142 962.14 962.14 957.162 957.162 952.208 952.208 947.279 947.279 942.374 942.374 937.494 937.494 932.637 932.637 927.804 927.804 922.994 922.994 918.208 918.208 913.445 913.445 908.706 908.706 903.989 903.989 899.295 899.295 894.624 894.624 889.976 889.976 885.35 885.35 880.746 880.746 876.165 876.165 871.605 871.605 867.068 867.068 862.552 862.552 858.058 858.058 853.585 853.585 849.133 849.133 844.703 844.703 840.294 840.294 835.906 835.906 831.539 831.539 827.192 827.192 822.866 822.866 818.56 818.56 814.275 814.275 810.01 810.01 805.765 805.765 801.54 801.54 797.334 797.334 793.149 793.149 788.983 788.983 784.836 784.836 780.709 780.709 776.6 776.6 772.511 772.511 768.44 768.44 764.388 764.388 760.354 760.354 756.338 756.338 752.34 752.34 748.36 748.36 744.397 744.397 740.451 740.451 736.523 736.523 732.611 732.611 728.715 728.715 724.836 724.836 720.974 720.974 717.127 717.127 713.296 713.296 709.481 709.481 705.682 705.682 701.899 701.899 698.131 698.131 694.38 694.38 690.646 690.646 686.927 686.927 683.226 683.226 679.543 679.543 675.877 675.877 672.229 672.229 668.601 668.601 664.991 664.991 661.402 661.402 657.832 657.832 654.284 654.284 650.757 650.757 647.252 647.252 643.769 643.769 640.309 640.309 636.871 636.871 633.456 633.456 630.064 630.064 626.696 626.696 623.35 623.35 620.028 620.028 616.729 616.729 613.453 613.453 610.199 610.199 606.969 606.969 603.76 603.76 600.573 600.573 597.407 597.407 594.261 594.261 591.136 591.136 588.03 588.03 584.942 584.942 581.871 581.871 578.817 578.817 575.778 575.778 572.752 572.752 569.739 569.739 566.737 566.737 563.745 563.745 560.762 560.762 557.785 557.785 554.814 554.814 551.847 551.847 548.882 548.882 545.92 545.92 542.958 542.958 539.997 539.997 537.034 537.034 534.07 534.07 531.105 531.105 528.138 528.138 525.168 525.168 522.198 522.198 519.226 519.226 516.254 516.254 513.283 513.283 510.312 510.312 507.344 507.344 504.38 504.38 501.421 501.421 498.468 498.468 495.523 495.523 492.586 492.586 489.66 489.66 486.745 486.745 483.843 483.843 480.955 480.955 478.082 478.082 475.224 475.224 472.383 472.383 469.558 469.558 466.752 466.752 463.963 463.963 461.192 461.192 458.439 458.439 455.705 455.705 452.988 452.988 450.289 450.289 447.608 447.608 444.944 444.944 442.296 442.296 439.665 439.665 437.05 437.05 434.45 434.45 431.865 431.865 429.295 429.295 426.738 426.738 424.195 424.195 421.665 421.665 419.148 419.148 416.643 416.643 414.151 414.151 411.67 411.67 409.201 409.201 406.743 406.743 404.296 404.296 401.859 401.859 399.434 399.434 397.019 397.019 394.614 394.614 392.22 392.22 389.836 389.836 387.462 387.462 385.098 385.098 382.743 382.743 380.399 380.399 378.064 378.064 375.739 375.739 373.424 373.424 371.118 371.118 368.822 368.822 366.535 366.535 364.258 364.258 361.99 361.99 359.731 359.731 357.482 357.482 355.241 355.241 353.01 353.01 350.788 350.788 348.576 348.576 346.372 346.372 344.177 344.177 341.991 341.991 339.814 339.814 337.646 337.646 335.486 335.486 333.335 333.335 331.193 331.193 329.06 329.06 326.935 326.935 324.819 324.819 322.712 322.712 320.613 320.613 318.522 318.522 316.44 316.44 314.366 314.366 312.3 312.3 310.243 310.243 308.194 308.194 306.153 306.153 304.12 304.12 302.096 302.096 300.079 300.079 298.071 298.071 296.07 296.07 294.078 294.078 292.093 292.093 290.117 290.117 288.148 288.148 286.187 286.187 284.233 284.233 282.288 282.288 280.35 280.35 278.419 278.419 276.497 276.497 274.582 274.582 272.674 272.674 270.774 270.774 268.882 268.882 266.996 266.996 265.119 265.119 263.248 263.248 261.385 261.385 259.529 259.529 257.681 257.681 255.839 255.839 254.005 254.005 252.178 252.178 250.358 250.358 248.545 248.545 246.739 246.739 244.941 244.941 243.149 243.149 241.364 241.364 239.586 239.586 237.815 237.815 236.05 236.05 234.293 234.293 232.542 232.542 230.798 230.798 229.061 229.061 227.33 227.33 225.607 225.607 223.889 223.889 222.178 222.178 220.474 220.474 218.777 218.777 217.086 217.086 215.401 215.401 213.723 213.723 212.051 212.051 210.385 210.385 208.726 208.726 207.073 207.073 205.427 205.427 203.786 203.786 202.152 202.152 200.524 200.524 198.903 198.903 197.287 197.287 195.678 195.678 194.074 194.074 192.477 192.477 190.885 190.885 189.3 189.3 187.721 187.721 186.147 186.147 184.58 184.58 183.018 183.018 181.462 181.462 179.912 179.912 178.368 178.368 176.83 176.83 175.297 175.297 173.771 173.771 172.249 172.249 170.734 170.734 169.224 169.224 167.72 167.72 166.221 166.221 164.728 164.728 163.241 163.241 161.759 161.759 160.282 160.282 158.811 158.811 157.345 157.345 155.885 155.885 154.43 154.43 152.981 152.981 151.537 151.537 150.098 150.098 148.665 148.665 147.237 147.237 145.814 145.814 144.396 144.396 142.984 142.984 141.577 141.577 140.174 140.174 138.777 138.777 137.386 137.386 135.999 135.999 134.617 134.617 133.24 133.24 131.869 131.869 130.502 130.502 129.141 129.141 127.784 127.784 126.432 126.432 125.085 125.085 123.743 123.743 122.406 122.406 121.074 121.074 119.747 119.747 118.424 118.424 117.106 117.106 115.793 115.793 114.485 114.485 113.181 113.181 111.883 111.883 110.588 110.588 109.299 109.299 108.014 108.014 106.734 106.734 105.458 105.458 104.187 104.187 102.921 102.921 101.659 101.659 100.401 100.401 99.1482 99.1482 97.8997 97.8997 96.6557 96.6557 95.4162 95.4162 94.1811 94.1811 92.9504 92.9504 91.7241 91.7241 90.5021 90.5021 89.2845 89.2845 88.0713 88.0713 86.8623 86.8623 85.6577 85.6577 84.4573 84.4573 83.2612 83.2612 82.0693 82.0693 80.8816 80.8816 79.6982 79.6982 78.5189 78.5189 77.3438 77.3438 76.1729 76.1729 75.0061 75.0061 73.8434 73.8434 72.6848 72.6848 71.5303 71.5303 70.3798 70.3798 69.2335 69.2335 68.0911 68.0911 66.9527 66.9527 65.8184 65.8184 64.688 64.688 63.5616 63.5616 62.4391 62.4391 61.3206 61.3206 60.206 60.206 59.0953 59.0953 57.9884 57.9884 56.8855 56.8855 55.7863 55.7863 54.6911 54.6911 53.5996 53.5996 52.5119 52.5119 51.428 51.428 50.3479 50.3479 49.2716 49.2716 48.199 48.199 47.1301 47.1301 46.0649 46.0649 45.0034 45.0034 43.9456 43.9456 42.8914 42.8914 41.8409 41.8409 40.794 40.794 39.7508 39.7508 38.7111 38.7111 37.6751 37.6751 36.6426 36.6426 35.6137 35.6137 34.5883 34.5883 33.5664 33.5664 32.5481 32.5481 31.5333 31.5333 30.5219 30.5219 29.5141 29.5141 28.5096 28.5096 27.5087 27.5087 26.5111 26.5111 25.517 25.517 24.5263 24.5263 23.539 23.539 22.555 22.555 21.5745 21.5745 20.5972 20.5972 19.6233 19.6233 18.6527 18.6527 17.6855 17.6855 16.7215 16.7215 15.7608 15.7608 14.8034 14.8034 13.8492 13.8492 12.8983 12.8983 11.9506 11.9506 11.0061 11.0061 10.0649 10.0649 9.12678 9.12678 8.19188 8.19188 7.26015 7.26015 6.33157 6.33157 5.40613 5.40613 4.48382 4.48382 3.56463 3.56463 2.64854 2.64854 1.73555 1.73555 0.825634 0.825634 -0.0812128 -0.0812128 -0.985004 -0.985004 -1.88575 -1.88575 -2.78347 -2.78347 -3.67817 -3.67817 -4.56985 -4.56985 -5.45855 -5.45855 -6.34425 -6.34425 -7.22699 -7.22699 -8.10676 -8.10676 -8.98359 -8.98359 -9.85748 -9.85748 -10.7284 -10.7284 -11.5965 -11.5965 -12.4616 -12.4616 -13.3239 -13.3239 -14.1832 -14.1832 -15.0397 -15.0397 -15.8934 -15.8934 -16.7442 -16.7442 -17.5921 -17.5921 -18.4373 -18.4373 -19.2796 -19.2796 -20.1191 -20.1191 -20.9558 -20.9558 -21.7897 -21.7897 -22.6209 -22.6209 -23.4493 -23.4493 -24.275 -24.275 -25.0979 -25.0979 -25.9181 -25.9181 -26.7355 -26.7355 -27.5503 -27.5503 -28.3623 -28.3623 -29.1717 -29.1717 -29.9784 -29.9784 -30.7824 -30.7824 -31.5838 -31.5838 -32.3825 -32.3825 -33.1786 -33.1786 -33.9721 -33.9721 -34.7629 -34.7629 -35.5511 -35.5511 -36.3368 -36.3368 -37.1198 -37.1198 -37.9003 -37.9003 -38.6782 -38.6782 -39.4536 -39.4536 -40.2264 -40.2264 -40.9966 -40.9966 -41.7644 -41.7644 -42.5296 -42.5296 -43.2923 -43.2923 -44.0525 -44.0525 -44.8102 -44.8102 -45.5654 -45.5654 -46.3182 -46.3182 -47.0685 -47.0685 -47.8163 -47.8163 -48.5618 -48.5618 -49.3047 -49.3047 -50.0453 -50.0453 -50.7834 -50.7834 -51.5191 -51.5191 -52.2524 -52.2524 -52.9833 -52.9833 -53.7119 -53.7119 -54.438 -54.438 -55.1618 -55.1618 -55.8833 -55.8833 -56.6024 -56.6024 -57.3192 -57.3192 -58.0336 -58.0336 -58.7457 -58.7457 -59.4555 -59.4555 -60.1631 -60.1631 -60.8683 -60.8683 -61.5712 -61.5712 -62.2718 -62.2718 -62.9702 -62.9702 -63.6663 -63.6663 -64.3602 -64.3602 -65.0518 -65.0518 -65.7412 -65.7412 -66.4284 -66.4284 -67.1133 -67.1133 -67.796 -67.796 -68.4766 -68.4766 -69.1549 -69.1549 -69.831 -69.831 -70.505 -70.505 -71.1768 -71.1768 -71.8464 -71.8464 -72.5139 -72.5139 -73.1792 -73.1792 -73.8424 -73.8424 -74.5034 -74.5034 -75.1624 -75.1624 -75.8192 -75.8192 -76.4739 -76.4739 -77.1265 -77.1265 -77.777 -77.777 -78.4254 -78.4254 -79.0718 -79.0718 -79.716 -79.716 -80.3583 -80.3583 -80.9984 -80.9984 -81.6365 -81.6365 -82.2726 -82.2726 -82.9066 -82.9066 -83.5386 -83.5386 -84.1686 -84.1686 -84.7966 -84.7966 -85.4226 -85.4226 -86.0465 -86.0465 -86.6685 -86.6685 -87.2885 -87.2885 -87.9065 -87.9065 -88.5226 -88.5226 -89.1367 -89.1367 -89.7488 -89.7488 -90.359 -90.359 -90.9672 -90.9672 -91.5735 -91.5735 -92.1779 -92.1779 -92.7804 -92.7804 -93.3809 -93.3809 -93.9796 -93.9796 -94.5763 -94.5763 -95.1712 -95.1712 -95.7641 -95.7641 -96.3552 -96.3552 -96.9444 -96.9444 -97.5318 -97.5318 -98.1173 -98.1173 -98.7009 -98.7009 -99.2827 -99.2827 -99.8626 -99.8626 -100.441 -100.441 -101.017 -101.017 -101.591 -101.591 -102.164 -102.164 -102.735 -102.735 -103.304 -103.304 -103.871 -103.871 -104.437 -104.437 -105 -105 -105.562 -105.562 -106.122 -106.122 -106.681 -106.681 -107.237 -107.237 -107.792 -107.792 -108.345 -108.345 -108.897 -108.897 -109.446 -109.446 -109.994 -109.994 -110.54 -110.54 -111.085 -111.085 -111.627 -111.627 -112.169 -112.169 -112.708 -112.708 -113.246 -113.246 -113.782 -113.782 -114.316 -114.316 -114.848 -114.848 -115.379 -115.379 -115.909 -115.909 -116.436 -116.436 -116.962 -116.962 -117.487 -117.487 -118.009 -118.009 -118.53 -118.53 -119.05 -119.05 -119.567 -119.567 -120.084 -120.084 -120.598 -120.598 -121.111 -121.111 -121.623 -121.623 -122.132 -122.132 -122.64 -122.64 -123.147 -123.147 -123.652 -123.652 -124.155 -124.155 -124.657 -124.657 -125.158 -125.158 -125.656 -125.656 -126.154 -126.154 -126.649 -126.649 -127.143 -127.143 -127.636 -127.636 -128.127 -128.127 -128.616 -128.616 -129.104 -129.104 -129.591 -129.591 -130.076 -130.076 -130.559 -130.559 -131.041 -131.041 -131.522 -131.522 -132.001 -132.001 -132.478 -132.478 -132.954 -132.954 -133.429 -133.429 -133.902 -133.902 -134.373 -134.373 -134.843 -134.843 -135.312 -135.312 -135.779 -135.779 -136.245 -136.245 -136.709 -136.709 -137.172 -137.172 -137.634 -137.634 -138.094 -138.094 -138.552 -138.552 -139.009 -139.009 -139.465 -139.465 -139.92 -139.92 -140.373 -140.373 -140.824 -140.824 -141.274 -141.274 -141.723 -141.723 -142.17 -142.17 -142.616 -142.616 -143.061 -143.061 -143.504 -143.504 -143.946 -143.946 -144.387 -144.387 -144.826 -144.826 -145.264 -145.264 -145.7 -145.7 -146.135 -146.135 -146.569 -146.569 -147.002 -147.002 -147.433 -147.433 -147.863 -147.863 -148.291 -148.291 -148.718 -148.718 -149.144 -149.144 -149.569 -149.569 -149.992 -149.992 -150.414 -150.414 -150.834 -150.834 -151.254 -151.254 -151.672 -151.672 -152.089 -152.089 -152.504 -152.504 -152.918 -152.918 -153.331 -153.331 -153.743 -153.743 -154.153 -154.153 -154.563 -154.563 -154.97 -154.97 -155.377 -155.377 -155.783 -155.783 -156.187 -156.187 -156.59 -156.59 -156.991 -156.991 -157.392 -157.392 -157.791 -157.791 -158.189 -158.189 -158.586 -158.586 -158.981 -158.981 -159.376 -159.376 -159.769 -159.769 -160.161 -160.161 -160.552 -160.552 -160.941 -160.941 -161.33 -161.33 -161.717 -161.717 -162.103 -162.103 -162.488 -162.488 -162.871 -162.871 -163.254 -163.254 -163.635 -163.635 -164.015 -164.015 -164.394 -164.394 -164.772 -164.772 -165.149 -165.149 -165.524 -165.524 -165.899 -165.899 -166.272 -166.272 -166.644 -166.644 -167.015 -167.015 -167.385 -167.385 -167.753 -167.753 -168.121 -168.121 -168.487 -168.487 -168.853 -168.853 -169.217 -169.217 -169.58 -169.58 -169.942 -169.942 -170.303 -170.303 -170.663 -170.663 -171.022 -171.022 -171.379 -171.379 -171.736 -171.736 -172.091 -172.091 -172.446 -172.446 -172.799 -172.799 -173.151 -173.151 -173.502 -173.502 -173.852 -173.852 -174.201 -174.201 -174.549 -174.549 -174.896 -174.896 -175.242 -175.242 -175.587 -175.587 -175.93 -175.93 -176.273 -176.2