# vtk DataFile Version 3.0
#This file was generated by the deal.II library on 2020/9/6 at 3:04:05
ASCII
DATASET UNSTRUCTURED_GRID

POINTS 4096 double
1.5 0 0
1.59692 0 0
1.59692 0 0
1.69385 0 0
1.69385 0 0
1.79077 0 0
1.79077 0 0
1.8877 0 0
1.8877 0 0
1.98462 0 0
1.98462 0 0
2.08154 0 0
2.08154 0 0
2.17847 0 0
2.17847 0 0
2.27539 0 0
2.27539 0 0
2.37231 0 0
2.37231 0 0
2.46924 0 0
2.46924 0 0
2.56616 0 0
2.56616 0 0
2.66309 0 0
2.66309 0 0
2.76001 0 0
2.76001 0 0
2.85693 0 0
2.85693 0 0
2.95386 0 0
2.95386 0 0
3.05078 0 0
3.05078 0 0
3.14771 0 0
3.14771 0 0
3.24463 0 0
3.24463 0 0
3.34155 0 0
3.34155 0 0
3.43848 0 0
3.43848 0 0
3.5354 0 0
3.5354 0 0
3.63232 0 0
3.63232 0 0
3.72925 0 0
3.72925 0 0
3.82617 0 0
3.82617 0 0
3.9231 0 0
3.9231 0 0
4.02002 0 0
4.02002 0 0
4.11694 0 0
4.11694 0 0
4.21387 0 0
4.21387 0 0
4.31079 0 0
4.31079 0 0
4.40771 0 0
4.40771 0 0
4.50464 0 0
4.50464 0 0
4.60156 0 0
4.60156 0 0
4.69849 0 0
4.69849 0 0
4.79541 0 0
4.79541 0 0
4.89233 0 0
4.89233 0 0
4.98926 0 0
4.98926 0 0
5.08618 0 0
5.08618 0 0
5.18311 0 0
5.18311 0 0
5.28003 0 0
5.28003 0 0
5.37695 0 0
5.37695 0 0
5.47388 0 0
5.47388 0 0
5.5708 0 0
5.5708 0 0
5.66772 0 0
5.66772 0 0
5.76465 0 0
5.76465 0 0
5.86157 0 0
5.86157 0 0
5.9585 0 0
5.9585 0 0
6.05542 0 0
6.05542 0 0
6.15234 0 0
6.15234 0 0
6.24927 0 0
6.24927 0 0
6.34619 0 0
6.34619 0 0
6.44312 0 0
6.44312 0 0
6.54004 0 0
6.54004 0 0
6.63696 0 0
6.63696 0 0
6.73389 0 0
6.73389 0 0
6.83081 0 0
6.83081 0 0
6.92773 0 0
6.92773 0 0
7.02466 0 0
7.02466 0 0
7.12158 0 0
7.12158 0 0
7.21851 0 0
7.21851 0 0
7.31543 0 0
7.31543 0 0
7.41235 0 0
7.41235 0 0
7.50928 0 0
7.50928 0 0
7.6062 0 0
7.6062 0 0
7.70312 0 0
7.70312 0 0
7.80005 0 0
7.80005 0 0
7.89697 0 0
7.89697 0 0
7.9939 0 0
7.9939 0 0
8.09082 0 0
8.09082 0 0
8.18774 0 0
8.18774 0 0
8.28467 0 0
8.28467 0 0
8.38159 0 0
8.38159 0 0
8.47852 0 0
8.47852 0 0
8.57544 0 0
8.57544 0 0
8.67236 0 0
8.67236 0 0
8.76929 0 0
8.76929 0 0
8.86621 0 0
8.86621 0 0
8.96313 0 0
8.96313 0 0
9.06006 0 0
9.06006 0 0
9.15698 0 0
9.15698 0 0
9.25391 0 0
9.25391 0 0
9.35083 0 0
9.35083 0 0
9.44775 0 0
9.44775 0 0
9.54468 0 0
9.54468 0 0
9.6416 0 0
9.6416 0 0
9.73853 0 0
9.73853 0 0
9.83545 0 0
9.83545 0 0
9.93237 0 0
9.93237 0 0
10.0293 0 0
10.0293 0 0
10.1262 0 0
10.1262 0 0
10.2231 0 0
10.2231 0 0
10.3201 0 0
10.3201 0 0
10.417 0 0
10.417 0 0
10.5139 0 0
10.5139 0 0
10.6108 0 0
10.6108 0 0
10.7078 0 0
10.7078 0 0
10.8047 0 0
10.8047 0 0
10.9016 0 0
10.9016 0 0
10.9985 0 0
10.9985 0 0
11.0955 0 0
11.0955 0 0
11.1924 0 0
11.1924 0 0
11.2893 0 0
11.2893 0 0
11.3862 0 0
11.3862 0 0
11.4832 0 0
11.4832 0 0
11.5801 0 0
11.5801 0 0
11.677 0 0
11.677 0 0
11.7739 0 0
11.7739 0 0
11.8708 0 0
11.8708 0 0
11.9678 0 0
11.9678 0 0
12.0647 0 0
12.0647 0 0
12.1616 0 0
12.1616 0 0
12.2585 0 0
12.2585 0 0
12.3555 0 0
12.3555 0 0
12.4524 0 0
12.4524 0 0
12.5493 0 0
12.5493 0 0
12.6462 0 0
12.6462 0 0
12.7432 0 0
12.7432 0 0
12.8401 0 0
12.8401 0 0
12.937 0 0
12.937 0 0
13.0339 0 0
13.0339 0 0
13.1309 0 0
13.1309 0 0
13.2278 0 0
13.2278 0 0
13.3247 0 0
13.3247 0 0
13.4216 0 0
13.4216 0 0
13.5186 0 0
13.5186 0 0
13.6155 0 0
13.6155 0 0
13.7124 0 0
13.7124 0 0
13.8093 0 0
13.8093 0 0
13.9062 0 0
13.9062 0 0
14.0032 0 0
14.0032 0 0
14.1001 0 0
14.1001 0 0
14.197 0 0
14.197 0 0
14.2939 0 0
14.2939 0 0
14.3909 0 0
14.3909 0 0
14.4878 0 0
14.4878 0 0
14.5847 0 0
14.5847 0 0
14.6816 0 0
14.6816 0 0
14.7786 0 0
14.7786 0 0
14.8755 0 0
14.8755 0 0
14.9724 0 0
14.9724 0 0
15.0693 0 0
15.0693 0 0
15.1663 0 0
15.1663 0 0
15.2632 0 0
15.2632 0 0
15.3601 0 0
15.3601 0 0
15.457 0 0
15.457 0 0
15.554 0 0
15.554 0 0
15.6509 0 0
15.6509 0 0
15.7478 0 0
15.7478 0 0
15.8447 0 0
15.8447 0 0
15.9417 0 0
15.9417 0 0
16.0386 0 0
16.0386 0 0
16.1355 0 0
16.1355 0 0
16.2324 0 0
16.2324 0 0
16.3293 0 0
16.3293 0 0
16.4263 0 0
16.4263 0 0
16.5232 0 0
16.5232 0 0
16.6201 0 0
16.6201 0 0
16.717 0 0
16.717 0 0
16.814 0 0
16.814 0 0
16.9109 0 0
16.9109 0 0
17.0078 0 0
17.0078 0 0
17.1047 0 0
17.1047 0 0
17.2017 0 0
17.2017 0 0
17.2986 0 0
17.2986 0 0
17.3955 0 0
17.3955 0 0
17.4924 0 0
17.4924 0 0
17.5894 0 0
17.5894 0 0
17.6863 0 0
17.6863 0 0
17.7832 0 0
17.7832 0 0
17.8801 0 0
17.8801 0 0
17.9771 0 0
17.9771 0 0
18.074 0 0
18.074 0 0
18.1709 0 0
18.1709 0 0
18.2678 0 0
18.2678 0 0
18.3647 0 0
18.3647 0 0
18.4617 0 0
18.4617 0 0
18.5586 0 0
18.5586 0 0
18.6555 0 0
18.6555 0 0
18.7524 0 0
18.7524 0 0
18.8494 0 0
18.8494 0 0
18.9463 0 0
18.9463 0 0
19.0432 0 0
19.0432 0 0
19.1401 0 0
19.1401 0 0
19.2371 0 0
19.2371 0 0
19.334 0 0
19.334 0 0
19.4309 0 0
19.4309 0 0
19.5278 0 0
19.5278 0 0
19.6248 0 0
19.6248 0 0
19.7217 0 0
19.7217 0 0
19.8186 0 0
19.8186 0 0
19.9155 0 0
19.9155 0 0
20.0125 0 0
20.0125 0 0
20.1094 0 0
20.1094 0 0
20.2063 0 0
20.2063 0 0
20.3032 0 0
20.3032 0 0
20.4001 0 0
20.4001 0 0
20.4971 0 0
20.4971 0 0
20.594 0 0
20.594 0 0
20.6909 0 0
20.6909 0 0
20.7878 0 0
20.7878 0 0
20.8848 0 0
20.8848 0 0
20.9817 0 0
20.9817 0 0
21.0786 0 0
21.0786 0 0
21.1755 0 0
21.1755 0 0
21.2725 0 0
21.2725 0 0
21.3694 0 0
21.3694 0 0
21.4663 0 0
21.4663 0 0
21.5632 0 0
21.5632 0 0
21.6602 0 0
21.6602 0 0
21.7571 0 0
21.7571 0 0
21.854 0 0
21.854 0 0
21.9509 0 0
21.9509 0 0
22.0479 0 0
22.0479 0 0
22.1448 0 0
22.1448 0 0
22.2417 0 0
22.2417 0 0
22.3386 0 0
22.3386 0 0
22.4355 0 0
22.4355 0 0
22.5325 0 0
22.5325 0 0
22.6294 0 0
22.6294 0 0
22.7263 0 0
22.7263 0 0
22.8232 0 0
22.8232 0 0
22.9202 0 0
22.9202 0 0
23.0171 0 0
23.0171 0 0
23.114 0 0
23.114 0 0
23.2109 0 0
23.2109 0 0
23.3079 0 0
23.3079 0 0
23.4048 0 0
23.4048 0 0
23.5017 0 0
23.5017 0 0
23.5986 0 0
23.5986 0 0
23.6956 0 0
23.6956 0 0
23.7925 0 0
23.7925 0 0
23.8894 0 0
23.8894 0 0
23.9863 0 0
23.9863 0 0
24.0833 0 0
24.0833 0 0
24.1802 0 0
24.1802 0 0
24.2771 0 0
24.2771 0 0
24.374 0 0
24.374 0 0
24.4709 0 0
24.4709 0 0
24.5679 0 0
24.5679 0 0
24.6648 0 0
24.6648 0 0
24.7617 0 0
24.7617 0 0
24.8586 0 0
24.8586 0 0
24.9556 0 0
24.9556 0 0
25.0525 0 0
25.0525 0 0
25.1494 0 0
25.1494 0 0
25.2463 0 0
25.2463 0 0
25.3433 0 0
25.3433 0 0
25.4402 0 0
25.4402 0 0
25.5371 0 0
25.5371 0 0
25.634 0 0
25.634 0 0
25.731 0 0
25.731 0 0
25.8279 0 0
25.8279 0 0
25.9248 0 0
25.9248 0 0
26.0217 0 0
26.0217 0 0
26.1187 0 0
26.1187 0 0
26.2156 0 0
26.2156 0 0
26.3125 0 0
26.3125 0 0
26.4094 0 0
26.4094 0 0
26.5063 0 0
26.5063 0 0
26.6033 0 0
26.6033 0 0
26.7002 0 0
26.7002 0 0
26.7971 0 0
26.7971 0 0
26.894 0 0
26.894 0 0
26.991 0 0
26.991 0 0
27.0879 0 0
27.0879 0 0
27.1848 0 0
27.1848 0 0
27.2817 0 0
27.2817 0 0
27.3787 0 0
27.3787 0 0
27.4756 0 0
27.4756 0 0
27.5725 0 0
27.5725 0 0
27.6694 0 0
27.6694 0 0
27.7664 0 0
27.7664 0 0
27.8633 0 0
27.8633 0 0
27.9602 0 0
27.9602 0 0
28.0571 0 0
28.0571 0 0
28.1541 0 0
28.1541 0 0
28.251 0 0
28.251 0 0
28.3479 0 0
28.3479 0 0
28.4448 0 0
28.4448 0 0
28.5417 0 0
28.5417 0 0
28.6387 0 0
28.6387 0 0
28.7356 0 0
28.7356 0 0
28.8325 0 0
28.8325 0 0
28.9294 0 0
28.9294 0 0
29.0264 0 0
29.0264 0 0
29.1233 0 0
29.1233 0 0
29.2202 0 0
29.2202 0 0
29.3171 0 0
29.3171 0 0
29.4141 0 0
29.4141 0 0
29.511 0 0
29.511 0 0
29.6079 0 0
29.6079 0 0
29.7048 0 0
29.7048 0 0
29.8018 0 0
29.8018 0 0
29.8987 0 0
29.8987 0 0
29.9956 0 0
29.9956 0 0
30.0925 0 0
30.0925 0 0
30.1895 0 0
30.1895 0 0
30.2864 0 0
30.2864 0 0
30.3833 0 0
30.3833 0 0
30.4802 0 0
30.4802 0 0
30.5771 0 0
30.5771 0 0
30.6741 0 0
30.6741 0 0
30.771 0 0
30.771 0 0
30.8679 0 0
30.8679 0 0
30.9648 0 0
30.9648 0 0
31.0618 0 0
31.0618 0 0
31.1587 0 0
31.1587 0 0
31.2556 0 0
31.2556 0 0
31.3525 0 0
31.3525 0 0
31.4495 0 0
31.4495 0 0
31.5464 0 0
31.5464 0 0
31.6433 0 0
31.6433 0 0
31.7402 0 0
31.7402 0 0
31.8372 0 0
31.8372 0 0
31.9341 0 0
31.9341 0 0
32.031 0 0
32.031 0 0
32.1279 0 0
32.1279 0 0
32.2249 0 0
32.2249 0 0
32.3218 0 0
32.3218 0 0
32.4187 0 0
32.4187 0 0
32.5156 0 0
32.5156 0 0
32.6125 0 0
32.6125 0 0
32.7095 0 0
32.7095 0 0
32.8064 0 0
32.8064 0 0
32.9033 0 0
32.9033 0 0
33.0002 0 0
33.0002 0 0
33.0972 0 0
33.0972 0 0
33.1941 0 0
33.1941 0 0
33.291 0 0
33.291 0 0
33.3879 0 0
33.3879 0 0
33.4849 0 0
33.4849 0 0
33.5818 0 0
33.5818 0 0
33.6787 0 0
33.6787 0 0
33.7756 0 0
33.7756 0 0
33.8726 0 0
33.8726 0 0
33.9695 0 0
33.9695 0 0
34.0664 0 0
34.0664 0 0
34.1633 0 0
34.1633 0 0
34.2603 0 0
34.2603 0 0
34.3572 0 0
34.3572 0 0
34.4541 0 0
34.4541 0 0
34.551 0 0
34.551 0 0
34.6479 0 0
34.6479 0 0
34.7449 0 0
34.7449 0 0
34.8418 0 0
34.8418 0 0
34.9387 0 0
34.9387 0 0
35.0356 0 0
35.0356 0 0
35.1326 0 0
35.1326 0 0
35.2295 0 0
35.2295 0 0
35.3264 0 0
35.3264 0 0
35.4233 0 0
35.4233 0 0
35.5203 0 0
35.5203 0 0
35.6172 0 0
35.6172 0 0
35.7141 0 0
35.7141 0 0
35.811 0 0
35.811 0 0
35.908 0 0
35.908 0 0
36.0049 0 0
36.0049 0 0
36.1018 0 0
36.1018 0 0
36.1987 0 0
36.1987 0 0
36.2957 0 0
36.2957 0 0
36.3926 0 0
36.3926 0 0
36.4895 0 0
36.4895 0 0
36.5864 0 0
36.5864 0 0
36.6833 0 0
36.6833 0 0
36.7803 0 0
36.7803 0 0
36.8772 0 0
36.8772 0 0
36.9741 0 0
36.9741 0 0
37.071 0 0
37.071 0 0
37.168 0 0
37.168 0 0
37.2649 0 0
37.2649 0 0
37.3618 0 0
37.3618 0 0
37.4587 0 0
37.4587 0 0
37.5557 0 0
37.5557 0 0
37.6526 0 0
37.6526 0 0
37.7495 0 0
37.7495 0 0
37.8464 0 0
37.8464 0 0
37.9434 0 0
37.9434 0 0
38.0403 0 0
38.0403 0 0
38.1372 0 0
38.1372 0 0
38.2341 0 0
38.2341 0 0
38.3311 0 0
38.3311 0 0
38.428 0 0
38.428 0 0
38.5249 0 0
38.5249 0 0
38.6218 0 0
38.6218 0 0
38.7188 0 0
38.7188 0 0
38.8157 0 0
38.8157 0 0
38.9126 0 0
38.9126 0 0
39.0095 0 0
39.0095 0 0
39.1064 0 0
39.1064 0 0
39.2034 0 0
39.2034 0 0
39.3003 0 0
39.3003 0 0
39.3972 0 0
39.3972 0 0
39.4941 0 0
39.4941 0 0
39.5911 0 0
39.5911 0 0
39.688 0 0
39.688 0 0
39.7849 0 0
39.7849 0 0
39.8818 0 0
39.8818 0 0
39.9788 0 0
39.9788 0 0
40.0757 0 0
40.0757 0 0
40.1726 0 0
40.1726 0 0
40.2695 0 0
40.2695 0 0
40.3665 0 0
40.3665 0 0
40.4634 0 0
40.4634 0 0
40.5603 0 0
40.5603 0 0
40.6572 0 0
40.6572 0 0
40.7542 0 0
40.7542 0 0
40.8511 0 0
40.8511 0 0
40.948 0 0
40.948 0 0
41.0449 0 0
41.0449 0 0
41.1418 0 0
41.1418 0 0
41.2388 0 0
41.2388 0 0
41.3357 0 0
41.3357 0 0
41.4326 0 0
41.4326 0 0
41.5295 0 0
41.5295 0 0
[...]
POINT_DATA 4096
SCALARS solution_0 double 1
LOOKUP_TABLE default
1.69427e+10 1.65917e+10 1.65917e+10 1.62957e+10 1.62957e+10 1.60436e+10 1.60436e+10 1.58269e+10 1.58269e+10 1.56388e+10 1.56388e+10 1.54742e+10 1.54742e+10 1.53289e+10 1.53289e+10 1.51996e+10 1.51996e+10 1.50837e+10 1.50837e+10 1.49788e+10 1.49788e+10 1.48833e+10 1.48833e+10 1.47956e+10 1.47956e+10 1.47145e+10 1.47145e+10 1.4639e+10 1.4639e+10 1.45682e+10 1.45682e+10 1.45014e+10 1.45014e+10 1.44379e+10 1.44379e+10 1.43772e+10 1.43772e+10 1.4319e+10 1.4319e+10 1.42627e+10 1.42627e+10 1.42081e+10 1.42081e+10 1.41549e+10 1.41549e+10 1.41029e+10 1.41029e+10 1.40518e+10 1.40518e+10 1.40015e+10 1.40015e+10 1.39519e+10 1.39519e+10 1.39027e+10 1.39027e+10 1.38538e+10 1.38538e+10 1.38053e+10 1.38053e+10 1.37569e+10 1.37569e+10 1.37087e+10 1.37087e+10 1.36605e+10 1.36605e+10 1.36124e+10 1.36124e+10 1.35641e+10 1.35641e+10 1.35158e+10 1.35158e+10 1.34674e+10 1.34674e+10 1.34189e+10 1.34189e+10 1.33702e+10 1.33702e+10 1.33213e+10 1.33213e+10 1.32723e+10 1.32723e+10 1.3223e+10 1.3223e+10 1.31735e+10 1.31735e+10 1.31238e+10 1.31238e+10 1.30739e+10 1.30739e+10 1.30238e+10 1.30238e+10 1.29734e+10 1.29734e+10 1.29228e+10 1.29228e+10 1.2872e+10 1.2872e+10 1.2821e+10 1.2821e+10 1.27698e+10 1.27698e+10 1.27183e+10 1.27183e+10 1.26667e+10 1.26667e+10 1.26149e+10 1.26149e+10 1.25628e+10 1.25628e+10 1.25106e+10 1.25106e+10 1.24582e+10 1.24582e+10 1.24057e+10 1.24057e+10 1.2353e+10 1.2353e+10 1.23001e+10 1.23001e+10 1.22471e+10 1.22471e+10 1.2194e+10 1.2194e+10 1.21407e+10 1.21407e+10 1.20874e+10 1.20874e+10 1.20339e+10 1.20339e+10 1.19803e+10 1.19803e+10 1.19266e+10 1.19266e+10 1.18729e+10 1.18729e+10 1.1819e+10 1.1819e+10 1.17651e+10 1.17651e+10 1.17112e+10 1.17112e+10 1.16572e+10 1.16572e+10 1.16031e+10 1.16031e+10 1.15491e+10 1.15491e+10 1.1495e+10 1.1495e+10 1.14408e+10 1.14408e+10 1.13867e+10 1.13867e+10 1.13326e+10 1.13326e+10 1.12785e+10 1.12785e+10 1.12243e+10 1.12243e+10 1.11702e+10 1.11702e+10 1.11162e+10 1.11162e+10 1.10621e+10 1.10621e+10 1.10081e+10 1.10081e+10 1.09542e+10 1.09542e+10 1.09003e+10 1.09003e+10 1.08465e+10 1.08465e+10 1.07927e+10 1.07927e+10 1.0739e+10 1.0739e+10 1.06853e+10 1.06853e+10 1.06318e+10 1.06318e+10 1.05783e+10 1.05783e+10 1.05249e+10 1.05249e+10 1.04717e+10 1.04717e+10 1.04185e+10 1.04185e+10 1.03654e+10 1.03654e+10 1.03124e+10 1.03124e+10 1.02596e+10 1.02596e+10 1.02069e+10 1.02069e+10 1.01542e+10 1.01542e+10 1.01018e+10 1.01018e+10 1.00494e+10 1.00494e+10 9.99721e+09 9.99721e+09 9.94513e+09 9.94513e+09 9.8932e+09 9.8932e+09 9.84142e+09 9.84142e+09 9.78978e+09 9.78978e+09 9.73829e+09 9.73829e+09 9.68697e+09 9.68697e+09 9.63579e+09 9.63579e+09 9.58479e+09 9.58479e+09 9.53394e+09 9.53394e+09 9.48326e+09 9.48326e+09 9.43276e+09 9.43276e+09 9.38242e+09 9.38242e+09 9.33226e+09 9.33226e+09 9.28227e+09 9.28227e+09 9.23247e+09 9.23247e+09 9.18284e+09 9.18284e+09 9.1334e+09 9.1334e+09 9.08414e+09 9.08414e+09 9.03508e+09 9.03508e+09 8.98619e+09 8.98619e+09 8.9375e+09 8.9375e+09 8.88901e+09 8.88901e+09 8.8407e+09 8.8407e+09 8.79259e+09 8.79259e+09 8.74468e+09 8.74468e+09 8.69697e+09 8.69697e+09 8.64945e+09 8.64945e+09 8.60213e+09 8.60213e+09 8.55502e+09 8.55502e+09 8.50811e+09 8.50811e+09 8.4614e+09 8.4614e+09 8.4149e+09 8.4149e+09 8.3686e+09 8.3686e+09 8.32251e+09 8.32251e+09 8.27663e+09 8.27663e+09 8.23095e+09 8.23095e+09 8.18549e+09 8.18549e+09 8.14023e+09 8.14023e+09 8.09518e+09 8.09518e+09 8.05034e+09 8.05034e+09 8.00571e+09 8.00571e+09 7.9613e+09 7.9613e+09 7.91709e+09 7.91709e+09 7.8731e+09 7.8731e+09 7.82932e+09 7.82932e+09 7.78575e+09 7.78575e+09 7.74239e+09 7.74239e+09 7.69925e+09 7.69925e+09 7.65632e+09 7.65632e+09 7.61361e+09 7.61361e+09 7.5711e+09 7.5711e+09 7.52881e+09 7.52881e+09 7.48674e+09 7.48674e+09 7.44487e+09 7.44487e+09 7.40322e+09 7.40322e+09 7.36178e+09 7.36178e+09 7.32056e+09 7.32056e+09 7.27955e+09 7.27955e+09 7.23875e+09 7.23875e+09 7.19816e+09 7.19816e+09 7.15778e+09 7.15778e+09 7.11762e+09 7.11762e+09 7.07767e+09 7.07767e+09 7.03793e+09 7.03793e+09 6.9984e+09 6.9984e+09 6.95908e+09 6.95908e+09 6.91997e+09 6.91997e+09 6.88107e+09 6.88107e+09 6.84238e+09 6.84238e+09 6.8039e+09 6.8039e+09 6.76562e+09 6.76562e+09 6.72756e+09 6.72756e+09 6.6897e+09 6.6897e+09 6.65205e+09 6.65205e+09 6.61461e+09 6.61461e+09 6.57737e+09 6.57737e+09 6.54033e+09 6.54033e+09 6.5035e+09 6.5035e+09 6.46688e+09 6.46688e+09 6.43046e+09 6.43046e+09 6.39424e+09 6.39424e+09 6.35822e+09 6.35822e+09 6.32241e+09 6.32241e+09 6.28679e+09 6.28679e+09 6.25138e+09 6.25138e+09 6.21616e+09 6.21616e+09 6.18115e+09 6.18115e+09 6.14633e+09 6.14633e+09 6.11171e+09 6.11171e+09 6.07728e+09 6.07728e+09 6.04305e+09 6.04305e+09 6.00902e+09 6.00902e+09 5.97518e+09 5.97518e+09 5.94153e+09 5.94153e+09 5.90808e+09 5.90808e+09 5.87482e+09 5.87482e+09 5.84175e+09 5.84175e+09 5.80887e+09 5.80887e+09 5.77618e+09 5.77618e+09 5.74368e+09 5.74368e+09 5.71137e+09 5.71137e+09 5.67924e+09 5.67924e+09 5.6473e+09 5.6473e+09 5.61554e+09 5.61554e+09 5.58397e+09 5.58397e+09 5.55259e+09 5.55259e+09 5.52139e+09 5.52139e+09 5.49036e+09 5.49036e+09 5.45952e+09 5.45952e+09 5.42887e+09 5.42887e+09 5.39839e+09 5.39839e+09 5.36808e+09 5.36808e+09 5.33796e+09 5.33796e+09 5.30801e+09 5.30801e+09 5.27824e+09 5.27824e+09 5.24865e+09 5.24865e+09 5.21923e+09 5.21923e+09 5.18998e+09 5.18998e+09 5.1609e+09 5.1609e+09 5.132e+09 5.132e+09 5.10327e+09 5.10327e+09 5.0747e+09 5.0747e+09 5.04631e+09 5.04631e+09 5.01809e+09 5.01809e+09 4.99003e+09 4.99003e+09 4.96214e+09 4.96214e+09 4.93441e+09 4.93441e+09 4.90685e+09 4.90685e+09 4.87945e+09 4.87945e+09 4.85221e+09 4.85221e+09 4.82514e+09 4.82514e+09 4.79823e+09 4.79823e+09 4.77148e+09 4.77148e+09 4.74488e+09 4.74488e+09 4.71845e+09 4.71845e+09 4.69217e+09 4.69217e+09 4.66605e+09 4.66605e+09 4.64009e+09 4.64009e+09 4.61428e+09 4.61428e+09 4.58862e+09 4.58862e+09 4.56312e+09 4.56312e+09 4.53777e+09 4.53777e+09 4.51257e+09 4.51257e+09 4.48752e+09 4.48752e+09 4.46262e+09 4.46262e+09 4.43787e+09 4.43787e+09 4.41327e+09 4.41327e+09 4.38882e+09 4.38882e+09 4.36451e+09 4.36451e+09 4.34035e+09 4.34035e+09 4.31633e+09 4.31633e+09 4.29245e+09 4.29245e+09 4.26872e+09 4.26872e+09 4.24513e+09 4.24513e+09 4.22168e+09 4.22168e+09 4.19837e+09 4.19837e+09 4.17521e+09 4.17521e+09 4.15217e+09 4.15217e+09 4.12928e+09 4.12928e+09 4.10653e+09 4.10653e+09 4.08391e+09 4.08391e+09 4.06142e+09 4.06142e+09 4.03907e+09 4.03907e+09 4.01686e+09 4.01686e+09 3.99477e+09 3.99477e+09 3.97282e+09 3.97282e+09 3.951e+09 3.951e+09 3.92931e+09 3.92931e+09 3.90775e+09 3.90775e+09 3.88632e+09 3.88632e+09 3.86502e+09 3.86502e+09 3.84384e+09 3.84384e+09 3.8228e+09 3.8228e+09 3.80187e+09 3.80187e+09 3.78107e+09 3.78107e+09 3.7604e+09 3.7604e+09 3.73985e+09 3.73985e+09 3.71942e+09 3.71942e+09 3.69911e+09 3.69911e+09 3.67893e+09 3.67893e+09 3.65886e+09 3.65886e+09 3.63892e+09 3.63892e+09 3.61909e+09 3.61909e+09 3.59938e+09 3.59938e+09 3.57979e+09 3.57979e+09 3.56031e+09 3.56031e+09 3.54095e+09 3.54095e+09 3.52171e+09 3.52171e+09 3.50258e+09 3.50258e+09 3.48356e+09 3.48356e+09 3.46466e+09 3.46466e+09 3.44587e+09 3.44587e+09 3.42719e+09 3.42719e+09 3.40862e+09 3.40862e+09 3.39016e+09 3.39016e+09 3.37181e+09 3.37181e+09 3.35357e+09 3.35357e+09 3.33544e+09 3.33544e+09 3.31741e+09 3.31741e+09 3.29949e+09 3.29949e+09 3.28168e+09 3.28168e+09 3.26397e+09 3.26397e+09 3.24637e+09 3.24637e+09 3.22887e+09 3.22887e+09 3.21147e+09 3.21147e+09 3.19418e+09 3.19418e+09 3.17698e+09 3.17698e+09 3.15989e+09 3.15989e+09 3.1429e+09 3.1429e+09 3.12601e+09 3.12601e+09 3.10922e+09 3.10922e+09 3.09253e+09 3.09253e+09 3.07593e+09 3.07593e+09 3.05944e+09 3.05944e+09 3.04303e+09 3.04303e+09 3.02673e+09 3.02673e+09 3.01052e+09 3.01052e+09 2.99441e+09 2.99441e+09 2.97839e+09 2.97839e+09 2.96246e+09 2.96246e+09 2.94662e+09 2.94662e+09 2.93088e+09 2.93088e+09 2.91523e+09 2.91523e+09 2.89968e+09 2.89968e+09 2.88421e+09 2.88421e+09 2.86883e+09 2.86883e+09 2.85354e+09 2.85354e+09 2.83834e+09 2.83834e+09 2.82323e+09 2.82323e+09 2.80821e+09 2.80821e+09 2.79327e+09 2.79327e+09 2.77842e+09 2.77842e+09 2.76365e+09 2.76365e+09 2.74898e+09 2.74898e+09 2.73438e+09 2.73438e+09 2.71987e+09 2.71987e+09 2.70545e+09 2.70545e+09 2.6911e+09 2.6911e+09 2.67684e+09 2.67684e+09 2.66266e+09 2.66266e+09 2.64857e+09 2.64857e+09 2.63455e+09 2.63455e+09 2.62062e+09 2.62062e+09 2.60676e+09 2.60676e+09 2.59299e+09 2.59299e+09 2.57929e+09 2.57929e+09 2.56567e+09 2.56567e+09 2.55213e+09 2.55213e+09 2.53867e+09 2.53867e+09 2.52528e+09 2.52528e+09 2.51197e+09 2.51197e+09 2.49874e+09 2.49874e+09 2.48558e+09 2.48558e+09 2.47249e+09 2.47249e+09 2.45948e+09 2.45948e+09 2.44655e+09 2.44655e+09 2.43368e+09 2.43368e+09 2.4209e+09 2.4209e+09 2.40818e+09 2.40818e+09 2.39553e+09 2.39553e+09 2.38296e+09 2.38296e+09 2.37046e+09 2.37046e+09 2.35803e+09 2.35803e+09 2.34566e+09 2.34566e+09 2.33337e+09 2.33337e+09 2.32115e+09 2.32115e+09 2.30899e+09 2.30899e+09 2.29691e+09 2.29691e+09 2.28489e+09 2.28489e+09 2.27294e+09 2.27294e+09 2.26105e+09 2.26105e+09 2.24924e+09 2.24924e+09 2.23749e+09 2.23749e+09 2.2258e+09 2.2258e+09 2.21418e+09 2.21418e+09 2.20262e+09 2.20262e+09 2.19113e+09 2.19113e+09 2.17971e+09 2.17971e+09 2.16834e+09 2.16834e+09 2.15704e+09 2.15704e+09 2.1458e+09 2.1458e+09 2.13463e+09 2.13463e+09 2.12351e+09 2.12351e+09 2.11246e+09 2.11246e+09 2.10147e+09 2.10147e+09 2.09054e+09 2.09054e+09 2.07967e+09 2.07967e+09 2.06886e+09 2.06886e+09 2.05811e+09 2.05811e+09 2.04742e+09 2.04742e+09 2.03678e+09 2.03678e+09 2.02621e+09 2.02621e+09 2.01569e+09 2.01569e+09 2.00523e+09 2.00523e+09 1.99483e+09 1.99483e+09 1.98449e+09 1.98449e+09 1.9742e+09 1.9742e+09 1.96396e+09 1.96396e+09 1.95379e+09 1.95379e+09 1.94367e+09 1.94367e+09 1.9336e+09 1.9336e+09 1.92359e+09 1.92359e+09 1.91363e+09 1.91363e+09 1.90373e+09 1.90373e+09 1.89388e+09 1.89388e+09 1.88408e+09 1.88408e+09 1.87434e+09 1.87434e+09 1.86465e+09 1.86465e+09 1.85501e+09 1.85501e+09 1.84542e+09 1.84542e+09 1.83589e+09 1.83589e+09 1.8264e+09 1.8264e+09 1.81697e+09 1.81697e+09 1.80759e+09 1.80759e+09 1.79826e+09 1.79826e+09 1.78898e+09 1.78898e+09 1.77974e+09 1.77974e+09 1.77056e+09 1.77056e+09 1.76143e+09 1.76143e+09 1.75234e+09 1.75234e+09 1.7433e+09 1.7433e+09 1.73431e+09 1.73431e+09 1.72537e+09 1.72537e+09 1.71648e+09 1.71648e+09 1.70763e+09 1.70763e+09 1.69883e+09 1.69883e+09 1.69008e+09 1.69008e+09 1.68137e+09 1.68137e+09 1.67271e+09 1.67271e+09 1.6641e+09 1.6641e+09 1.65553e+09 1.65553e+09 1.647e+09 1.647e+09 1.63852e+09 1.63852e+09 1.63009e+09 1.63009e+09 1.62169e+09 1.62169e+09 1.61335e+09 1.61335e+09 1.60504e+09 1.60504e+09 1.59678e+09 1.59678e+09 1.58857e+09 1.58857e+09 1.58039e+09 1.58039e+09 1.57226e+09 1.57226e+09 1.56417e+09 1.56417e+09 1.55612e+09 1.55612e+09 1.54812e+09 1.54812e+09 1.54015e+09 1.54015e+09 1.53223e+09 1.53223e+09 1.52435e+09 1.52435e+09 1.51651e+09 1.51651e+09 1.50871e+09 1.50871e+09 1.50095e+09 1.50095e+09 1.49323e+09 1.49323e+09 1.48555e+09 1.48555e+09 1.4779e+09 1.4779e+09 1.4703e+09 1.4703e+09 1.46274e+09 1.46274e+09 1.45522e+09 1.45522e+09 1.44773e+09 1.44773e+09 1.44028e+09 1.44028e+09 1.43287e+09 1.43287e+09 1.4255e+09 1.4255e+09 1.41817e+09 1.41817e+09 1.41087e+09 1.41087e+09 1.40361e+09 1.40361e+09 1.39639e+09 1.39639e+09 1.3892e+09 1.3892e+09 1.38205e+09 1.38205e+09 1.37494e+09 1.37494e+09 1.36786e+09 1.36786e+09 1.36082e+09 1.36082e+09 1.35381e+09 1.35381e+09 1.34684e+09 1.34684e+09 1.33991e+09 1.33991e+09 1.333e+09 1.333e+09 1.32614e+09 1.32614e+09 1.31931e+09 1.31931e+09 1.31251e+09 1.31251e+09 1.30574e+09 1.30574e+09 1.29901e+09 1.29901e+09 1.29232e+09 1.29232e+09 1.28565e+09 1.28565e+09 1.27902e+09 1.27902e+09 1.27243e+09 1.27243e+09 1.26586e+09 1.26586e+09 1.25933e+09 1.25933e+09 1.25283e+09 1.25283e+09 1.24636e+09 1.24636e+09 1.23993e+09 1.23993e+09 1.23353e+09 1.23353e+09 1.22716e+09 1.22716e+09 1.22081e+09 1.22081e+09 1.21451e+09 1.21451e+09 1.20823e+09 1.20823e+09 1.20198e+09 1.20198e+09 1.19576e+09 1.19576e+09 1.18958e+09 1.18958e+09 1.18342e+09 1.18342e+09 1.1773e+09 1.1773e+09 1.1712e+09 1.1712e+09 1.16514e+09 1.16514e+09 1.1591e+09 1.1591e+09 1.15309e+09 1.15309e+09 1.14711e+09 1.14711e+09 1.14117e+09 1.14117e+09 1.13525e+09 1.13525e+09 1.12935e+09 1.12935e+09 1.12349e+09 1.12349e+09 1.11766e+09 1.11766e+09 1.11185e+09 1.11185e+09 1.10607e+09 1.10607e+09 1.10032e+09 1.10032e+09 1.0946e+09 1.0946e+09 1.08891e+09 1.08891e+09 1.08324e+09 1.08324e+09 1.0776e+09 1.0776e+09 1.07198e+09 1.07198e+09 1.0664e+09 1.0664e+09 1.06084e+09 1.06084e+09 1.0553e+09 1.0553e+09 1.0498e+09 1.0498e+09 1.04432e+09 1.04432e+09 1.03886e+09 1.03886e+09 1.03343e+09 1.03343e+09 1.02803e+09 1.02803e+09 1.02265e+09 1.02265e+09 1.0173e+09 1.0173e+09 1.01197e+09 1.01197e+09 1.00667e+09 1.00667e+09 1.0014e+09 1.0014e+09 9.96145e+08 9.96145e+08 9.90918e+08 9.90918e+08 9.85716e+08 9.85716e+08 9.80539e+08 9.80539e+08 9.75385e+08 9.75385e+08 9.70256e+08 9.70256e+08 9.65151e+08 9.65151e+08 9.6007e+08 9.6007e+08 9.55013e+08 9.55013e+08 9.49979e+08 9.49979e+08 9.44968e+08 9.44968e+08 9.39981e+08 9.39981e+08 9.35018e+08 9.35018e+08 9.30077e+08 9.30077e+08 9.25159e+08 9.25159e+08 9.20264e+08 9.20264e+08 9.15392e+08 9.15392e+08 9.10542e+08 9.10542e+08 9.05715e+08 9.05715e+08 9.0091e+08 9.0091e+08 8.96127e+08 8.96127e+08 8.91366e+08 8.91366e+08 8.86627e+08 8.86627e+08 8.8191e+08 8.8191e+08 8.77214e+08 8.77214e+08 8.7254e+08 8.7254e+08 8.67888e+08 8.67888e+08 8.63256e+08 8.63256e+08 8.58646e+08 8.58646e+08 8.54057e+08 8.54057e+08 8.49489e+08 8.49489e+08 8.44942e+08 8.44942e+08 8.40415e+08 8.40415e+08 8.35909e+08 8.35909e+08 8.31424e+08 8.31424e+08 8.26959e+08 8.26959e+08 8.22514e+08 8.22514e+08 8.18089e+08 8.18089e+08 8.13684e+08 8.13684e+08 8.09299e+08 8.09299e+08 8.04934e+08 8.04934e+08 8.00588e+08 8.00588e+08 7.96262e+08 7.96262e+08 7.91956e+08 7.91956e+08 7.87669e+08 7.87669e+08 7.83401e+08 7.83401e+08 7.79152e+08 7.79152e+08 7.74922e+08 7.74922e+08 7.70712e+08 7.70712e+08 7.6652e+08 7.6652e+08 7.62346e+08 7.62346e+08 7.58191e+08 7.58191e+08 7.54055e+08 7.54055e+08 7.49937e+08 7.49937e+08 7.45838e+08 7.45838e+08 7.41757e+08 7.41757e+08 7.37693e+08 7.37693e+08 7.33648e+08 7.33648e+08 7.29621e+08 7.29621e+08 7.25611e+08 7.25611e+08 7.2162e+08 7.2162e+08 7.17645e+08 7.17645e+08 7.13689e+08 7.13689e+08 7.09749e+08 7.09749e+08 7.05827e+08 7.05827e+08 7.01922e+08 7.01922e+08 6.98035e+08 6.98035e+08 6.94164e+08 6.94164e+08 6.90311e+08 6.90311e+08 6.86474e+08 6.86474e+08 6.82654e+08 6.82654e+08 6.7885e+08 6.7885e+08 6.75063e+08 6.75063e+08 6.71293e+08 6.71293e+08 6.67539e+08 6.67539e+08 6.63802e+08 6.63802e+08 6.6008e+08 6.6008e+08 6.56375e+08 6.56375e+08 6.52686e+08 6.52686e+08 6.49012e+08 6.49012e+08 6.45355e+08 6.45355e+08 6.41714e+08 6.41714e+08 6.38088e+08 6.38088e+08 6.34477e+08 6.34477e+08 6.30883e+08 6.30883e+08 6.27303e+08 6.27303e+08 6.23739e+08 6.23739e+08 6.20191e+08 6.20191e+08 6.16657e+08 6.16657e+08 6.13139e+08 6.13139e+08 6.09636e+08 6.09636e+08 6.06148e+08 6.06148e+08 6.02674e+08 6.02674e+08 5.99216e+08 5.99216e+08 5.95772e+08 5.95772e+08 5.92343e+08 5.92343e+08 5.88928e+08 5.88928e+08 5.85528e+08 5.85528e+08 5.82142e+08 5.82142e+08 5.78771e+08 5.78771e+08 5.75414e+08 5.75414e+08 5.72071e+08 5.72071e+08 5.68742e+08 5.68742e+08 5.65428e+08 5.65428e+08 5.62127e+08 5.62127e+08 5.5884e+08 5.5884e+08 5.55567e+08 5.55567e+08 5.52308e+08 5.52308e+08 5.49063e+08 5.49063e+08 5.45831e+08 5.45831e+08 5.42612e+08 5.42612e+08 5.39407e+08 5.39407e+08 5.36216e+08 5.36216e+08 5.33038e+08 5.33038e+08 5.29873e+08 5.29873e+08 5.26721e+08 5.26721e+08 5.23582e+08 5.23582e+08 5.20457e+08 5.20457e+08 5.17344e+08 5.17344e+08 5.14245e+08 5.14245e+08 5.11158e+08 5.11158e+08 5.08084e+08 5.08084e+08 5.05023e+08 5.05023e+08 5.01974e+08 5.01974e+08 4.98938e+08 4.98938e+08 4.95915e+08 4.95915e+08 4.92904e+08 4.92904e+08 4.89905e+08 4.89905e+08 4.86919e+08 4.86919e+08 4.83945e+08 4.83945e+08 4.80983e+08 4.80983e+08 4.78034e+08 4.78034e+08 4.75096e+08 4.75096e+08 4.72171e+08 4.72171e+08 4.69258e+08 4.69258e+08 4.66356e+08 4.66356e+08 4.63466e+08 4.63466e+08 4.60588e+08 4.60588e+08 4.57722e+08 4.57722e+08 4.54868e+08 4.54868e+08 4.52025e+08 4.52025e+08 4.49193e+08 4.49193e+08 4.46374e+08 4.46374e+08 4.43565e+08 4.43565e+08 4.40768e+08 4.40768e+08 4.37982e+08 4.37982e+08 4.35208e+08 4.35208e+08 4.32445e+08 4.32445e+08 4.29693e+08 4.29693e+08 4.26952e+08 4.26952e+08 4.24222e+08 4.24222e+08 4.21503e+08 4.21503e+08 4.18795e+08 4.18795e+08 4.16098e+08 4.16098e+08 4.13411e+08 4.13411e+08 4.10736e+08 4.10736e+08 4.08071e+08 4.08071e+08 4.05417e+08 4.05417e+08 4.02773e+08 4.02773e+08 4.0014e+08 4.0014e+08 3.97518e+08 3.97518e+08 3.94906e+08 3.94906e+08 3.92304e+08 3.92304e+08 3.89713e+08 3.89713e+08 3.87132e+08 3.87132e+08 3.84562e+08 3.84562e+08 3.82001e+08 3.82001e+08 3.79451e+08 3.79451e+08 3.76911e+08 3.76911e+08 3.7438e+08 3.7438e+08 3.7186e+08 3.7186e+08 3.6935e+08 3.6935e+08 3.6685e+08 3.6685e+08 3.64359e+08 3.64359e+08 3.61879e+08 3.61879e+08 3.59408e+08 3.59408e+08 3.56947e+08 3.56947e+08 3.54496e+08 3.54496e+08 3.52054e+08 3.52054e+08 3.49621e+08 3.49621e+08 3.47199e+08 3.47199e+08 3.44786e+08 3.44786e+08 3.42382e+08 3.42382e+08 3.39987e+08 3.39987e+08 3.37602e+08 3.37602e+08 3.35227e+08 3.35227e+08 3.3286e+08 3.3286e+08 3.30503e+08 3.30503e+08 3.28155e+08 3.28155e+08 3.25816e+08 3.25816e+08 3.23486e+08 3.23486e+08 3.21165e+08 3.21165e+08 3.18854e+08 3.18854e+08 3.16551e+08 3.16551e+08 3.14257e+08 3.14257e+08 3.11972e+08 3.11972e+08 3.09695e+08 3.09695e+08 3.07428e+08 3.07428e+08 3.05169e+08 3.05169e+08 3.02919e+08 3.02919e+08 3.00678e+08 3.00678e+08 2.98445e+08 2.98445e+08 2.96221e+08 2.96221e+08 2.94006e+08 2.94006e+08 2.91798e+08 2.91798e+08 2.896e+08 2.896e+08 2.8741e+08 2.8741e+08 2.85228e+08 2.85228e+08 2.83054e+08 2.83054e+08 2.80889e+08 2.80889e+08 2.78732e+08 2.78732e+08 2.76584e+08 2.76584e+08 2.74443e+08 2.74443e+08 2.72311e+08 2.72311e+08 2.70187e+08 2.70187e+08 2.6807e+08 2.6807e+08 2.65962e+08 2.65962e+08 2.63862e+08 2.63862e+08 2.6177e+08 2.6177e+08 2.59686e+08 2.59686e+08 2.57609e+08 2.57609e+08 2.55541e+08 2.55541e+08 2.5348e+08 2.5348e+08 2.51427e+08 2.51427e+08 2.49382e+08 2.49382e+08 2.47345e+08 2.47345e+08 2.45315e+08 2.45315e+08 2.43293e+08 2.43293e+08 2.41279e+08 2.41279e+08 2.39272e+08 2.39272e+08 2.37272e+08 2.37272e+08 2.3528e+08 2.3528e+08 2.33296e+08 2.33296e+08 2.31319e+08 2.31319e+08 2.29349e+08 2.29349e+08 2.27387e+08 2.27387e+08 2.25432e+08 2.25432e+08 2.23485e+08 2.23485e+08 2.21544e+08 2.21544e+08 2.19611e+08 2.19611e+08 2.17685e+08 2.17685e+08 2.15766e+08 2.15766e+08 2.13855e+08 2.13855e+08 2.1195e+08 2.1195e+08 2.10053e+08 2.10053e+08 2.08163e+08 2.08163e+08 2.06279e+08 2.06279e+08 2.04403e+08 2.04403e+08 2.02533e+08 2.02533e+08 2.00671e+08 2.00671e+08 1.98815e+08 1.98815e+08 1.96966e+08 1.96966e+08 1.95124e+08 1.95124e+08 1.93289e+08 1.93289e+08 1.91461e+08 1.91461e+08 1.89639e+08 1.89639e+08 1.87824e+08 1.87824e+08 1.86015e+08 1.86015e+08 1.84214e+08 1.84214e+08 1.82419e+08 1.82419e+08 1.8063e+08 1.8063e+08 1.78848e+08 1.78848e+08 1.77073e+08 1.77073e+08 1.75304e+08 1.75304e+08 1.73541e+08 1.73541e+08 1.71785e+08 1.71785e+08 1.70036e+08 1.70036e+08 1.68292e+08 1.68292e+08 1.66555e+08 1.66555e+08 1.64825e+08 1.64825e+08 1.631e+08 1.631e+08 1.61382e+08 1.61382e+08 1.59671e+08 1.59671e+08 1.57965e+08 1.57965e+08 1.56266e+08 1.56266e+08 1.54573e+08 1.54573e+08 1.52885e+08 1.52885e+08 1.51204e+08 1.51204e+08 1.4953e+08 1.4953e+08 1.47861e+08 1.47861e+08 1.46198e+08 1.46198e+08 1.44541e+08 1.44541e+08 1.4289e+08 1.4289e+08 1.41245e+08 1.41245e+08 1.39606e+08 1.39606e+08 1.37973e+08 1.37973e+08 1.36346e+08 1.36346e+08 1.34725e+08 1.34725e+08 1.33109e+08 1.33109e+08 1.31499e+08 1.31499e+08 1.29896e+08 1.29896e+08 1.28297e+08 1.28297e+08 1.26705e+08 1.26705e+08 1.25118e+08 1.25118e+08 1.23537e+08 1.23537e+08 1.21961e+08 1.21961e+08 1.20392e+08 1.20392e+08 1.18827e+08 1.18827e+08 1.17269e+08 1.17269e+08 1.15715e+08 1.15715e+08 1.14168e+08 1.14168e+08 1.12626e+08 1.12626e+08 1.11089e+08 1.11089e+08 1.09558e+08 1.09558e+08 1.08032e+08 1.08032e+08 1.06512e+08 1.06512e+08 1.04997e+08 1.04997e+08 1.03488e+08 1