# vtk DataFile Version 3.0
#This file was generated by the deal.II library on 2020/9/6 at 2:48:00
ASCII
DATASET UNSTRUCTURED_GRID

POINTS 4096 double
1.5 0 0
1.59692 0 0
1.59692 0 0
1.69385 0 0
1.69385 0 0
1.79077 0 0
1.79077 0 0
1.8877 0 0
1.8877 0 0
1.98462 0 0
1.98462 0 0
2.08154 0 0
2.08154 0 0
2.17847 0 0
2.17847 0 0
2.27539 0 0
2.27539 0 0
2.37231 0 0
2.37231 0 0
2.46924 0 0
2.46924 0 0
2.56616 0 0
2.56616 0 0
2.66309 0 0
2.66309 0 0
2.76001 0 0
2.76001 0 0
2.85693 0 0
2.85693 0 0
2.95386 0 0
2.95386 0 0
3.05078 0 0
3.05078 0 0
3.14771 0 0
3.14771 0 0
3.24463 0 0
3.24463 0 0
3.34155 0 0
3.34155 0 0
3.43848 0 0
3.43848 0 0
3.5354 0 0
3.5354 0 0
3.63232 0 0
3.63232 0 0
3.72925 0 0
3.72925 0 0
3.82617 0 0
3.82617 0 0
3.9231 0 0
3.9231 0 0
4.02002 0 0
4.02002 0 0
4.11694 0 0
4.11694 0 0
4.21387 0 0
4.21387 0 0
4.31079 0 0
4.31079 0 0
4.40771 0 0
4.40771 0 0
4.50464 0 0
4.50464 0 0
4.60156 0 0
4.60156 0 0
4.69849 0 0
4.69849 0 0
4.79541 0 0
4.79541 0 0
4.89233 0 0
4.89233 0 0
4.98926 0 0
4.98926 0 0
5.08618 0 0
5.08618 0 0
5.18311 0 0
5.18311 0 0
5.28003 0 0
5.28003 0 0
5.37695 0 0
5.37695 0 0
5.47388 0 0
5.47388 0 0
5.5708 0 0
5.5708 0 0
5.66772 0 0
5.66772 0 0
5.76465 0 0
5.76465 0 0
5.86157 0 0
5.86157 0 0
5.9585 0 0
5.9585 0 0
6.05542 0 0
6.05542 0 0
6.15234 0 0
6.15234 0 0
6.24927 0 0
6.24927 0 0
6.34619 0 0
6.34619 0 0
6.44312 0 0
6.44312 0 0
6.54004 0 0
6.54004 0 0
6.63696 0 0
6.63696 0 0
6.73389 0 0
6.73389 0 0
6.83081 0 0
6.83081 0 0
6.92773 0 0
6.92773 0 0
7.02466 0 0
7.02466 0 0
7.12158 0 0
7.12158 0 0
7.21851 0 0
7.21851 0 0
7.31543 0 0
7.31543 0 0
7.41235 0 0
7.41235 0 0
7.50928 0 0
7.50928 0 0
7.6062 0 0
7.6062 0 0
7.70312 0 0
7.70312 0 0
7.80005 0 0
7.80005 0 0
7.89697 0 0
7.89697 0 0
7.9939 0 0
7.9939 0 0
8.09082 0 0
8.09082 0 0
8.18774 0 0
8.18774 0 0
8.28467 0 0
8.28467 0 0
8.38159 0 0
8.38159 0 0
8.47852 0 0
8.47852 0 0
8.57544 0 0
8.57544 0 0
8.67236 0 0
8.67236 0 0
8.76929 0 0
8.76929 0 0
8.86621 0 0
8.86621 0 0
8.96313 0 0
8.96313 0 0
9.06006 0 0
9.06006 0 0
9.15698 0 0
9.15698 0 0
9.25391 0 0
9.25391 0 0
9.35083 0 0
9.35083 0 0
9.44775 0 0
9.44775 0 0
9.54468 0 0
9.54468 0 0
9.6416 0 0
9.6416 0 0
9.73853 0 0
9.73853 0 0
9.83545 0 0
9.83545 0 0
9.93237 0 0
9.93237 0 0
10.0293 0 0
10.0293 0 0
10.1262 0 0
10.1262 0 0
10.2231 0 0
10.2231 0 0
10.3201 0 0
10.3201 0 0
10.417 0 0
10.417 0 0
10.5139 0 0
10.5139 0 0
10.6108 0 0
10.6108 0 0
10.7078 0 0
10.7078 0 0
10.8047 0 0
10.8047 0 0
10.9016 0 0
10.9016 0 0
10.9985 0 0
10.9985 0 0
11.0955 0 0
11.0955 0 0
11.1924 0 0
11.1924 0 0
11.2893 0 0
11.2893 0 0
11.3862 0 0
11.3862 0 0
11.4832 0 0
11.4832 0 0
11.5801 0 0
11.5801 0 0
11.677 0 0
11.677 0 0
11.7739 0 0
11.7739 0 0
11.8708 0 0
11.8708 0 0
11.9678 0 0
11.9678 0 0
12.0647 0 0
12.0647 0 0
12.1616 0 0
12.1616 0 0
12.2585 0 0
12.2585 0 0
12.3555 0 0
12.3555 0 0
12.4524 0 0
12.4524 0 0
12.5493 0 0
12.5493 0 0
12.6462 0 0
12.6462 0 0
12.7432 0 0
12.7432 0 0
12.8401 0 0
12.8401 0 0
12.937 0 0
12.937 0 0
13.0339 0 0
13.0339 0 0
13.1309 0 0
13.1309 0 0
13.2278 0 0
13.2278 0 0
13.3247 0 0
13.3247 0 0
13.4216 0 0
13.4216 0 0
13.5186 0 0
13.5186 0 0
13.6155 0 0
13.6155 0 0
13.7124 0 0
13.7124 0 0
13.8093 0 0
13.8093 0 0
13.9062 0 0
13.9062 0 0
14.0032 0 0
14.0032 0 0
14.1001 0 0
14.1001 0 0
14.197 0 0
14.197 0 0
14.2939 0 0
14.2939 0 0
14.3909 0 0
14.3909 0 0
14.4878 0 0
14.4878 0 0
14.5847 0 0
14.5847 0 0
14.6816 0 0
14.6816 0 0
14.7786 0 0
14.7786 0 0
14.8755 0 0
14.8755 0 0
14.9724 0 0
14.9724 0 0
15.0693 0 0
15.0693 0 0
15.1663 0 0
15.1663 0 0
15.2632 0 0
15.2632 0 0
15.3601 0 0
15.3601 0 0
15.457 0 0
15.457 0 0
15.554 0 0
15.554 0 0
15.6509 0 0
15.6509 0 0
15.7478 0 0
15.7478 0 0
15.8447 0 0
15.8447 0 0
15.9417 0 0
15.9417 0 0
16.0386 0 0
16.0386 0 0
16.1355 0 0
16.1355 0 0
16.2324 0 0
16.2324 0 0
16.3293 0 0
16.3293 0 0
16.4263 0 0
16.4263 0 0
16.5232 0 0
16.5232 0 0
16.6201 0 0
16.6201 0 0
16.717 0 0
16.717 0 0
16.814 0 0
16.814 0 0
16.9109 0 0
16.9109 0 0
17.0078 0 0
17.0078 0 0
17.1047 0 0
17.1047 0 0
17.2017 0 0
17.2017 0 0
17.2986 0 0
17.2986 0 0
17.3955 0 0
17.3955 0 0
17.4924 0 0
17.4924 0 0
17.5894 0 0
17.5894 0 0
17.6863 0 0
17.6863 0 0
17.7832 0 0
17.7832 0 0
17.8801 0 0
17.8801 0 0
17.9771 0 0
17.9771 0 0
18.074 0 0
18.074 0 0
18.1709 0 0
18.1709 0 0
18.2678 0 0
18.2678 0 0
18.3647 0 0
18.3647 0 0
18.4617 0 0
18.4617 0 0
18.5586 0 0
18.5586 0 0
18.6555 0 0
18.6555 0 0
18.7524 0 0
18.7524 0 0
18.8494 0 0
18.8494 0 0
18.9463 0 0
18.9463 0 0
19.0432 0 0
19.0432 0 0
19.1401 0 0
19.1401 0 0
19.2371 0 0
19.2371 0 0
19.334 0 0
19.334 0 0
19.4309 0 0
19.4309 0 0
19.5278 0 0
19.5278 0 0
19.6248 0 0
19.6248 0 0
19.7217 0 0
19.7217 0 0
19.8186 0 0
19.8186 0 0
19.9155 0 0
19.9155 0 0
20.0125 0 0
20.0125 0 0
20.1094 0 0
20.1094 0 0
20.2063 0 0
20.2063 0 0
20.3032 0 0
20.3032 0 0
20.4001 0 0
20.4001 0 0
20.4971 0 0
20.4971 0 0
20.594 0 0
20.594 0 0
20.6909 0 0
20.6909 0 0
20.7878 0 0
20.7878 0 0
20.8848 0 0
20.8848 0 0
20.9817 0 0
20.9817 0 0
21.0786 0 0
21.0786 0 0
21.1755 0 0
21.1755 0 0
21.2725 0 0
21.2725 0 0
21.3694 0 0
21.3694 0 0
21.4663 0 0
21.4663 0 0
21.5632 0 0
21.5632 0 0
21.6602 0 0
21.6602 0 0
21.7571 0 0
21.7571 0 0
21.854 0 0
21.854 0 0
21.9509 0 0
21.9509 0 0
22.0479 0 0
22.0479 0 0
22.1448 0 0
22.1448 0 0
22.2417 0 0
22.2417 0 0
22.3386 0 0
22.3386 0 0
22.4355 0 0
22.4355 0 0
22.5325 0 0
22.5325 0 0
22.6294 0 0
22.6294 0 0
22.7263 0 0
22.7263 0 0
22.8232 0 0
22.8232 0 0
22.9202 0 0
22.9202 0 0
23.0171 0 0
23.0171 0 0
23.114 0 0
23.114 0 0
23.2109 0 0
23.2109 0 0
23.3079 0 0
23.3079 0 0
23.4048 0 0
23.4048 0 0
23.5017 0 0
23.5017 0 0
23.5986 0 0
23.5986 0 0
23.6956 0 0
23.6956 0 0
23.7925 0 0
23.7925 0 0
23.8894 0 0
23.8894 0 0
23.9863 0 0
23.9863 0 0
24.0833 0 0
24.0833 0 0
24.1802 0 0
24.1802 0 0
24.2771 0 0
24.2771 0 0
24.374 0 0
24.374 0 0
24.4709 0 0
24.4709 0 0
24.5679 0 0
24.5679 0 0
24.6648 0 0
24.6648 0 0
24.7617 0 0
24.7617 0 0
24.8586 0 0
24.8586 0 0
24.9556 0 0
24.9556 0 0
25.0525 0 0
25.0525 0 0
25.1494 0 0
25.1494 0 0
25.2463 0 0
25.2463 0 0
25.3433 0 0
25.3433 0 0
25.4402 0 0
25.4402 0 0
25.5371 0 0
25.5371 0 0
25.634 0 0
25.634 0 0
25.731 0 0
25.731 0 0
25.8279 0 0
25.8279 0 0
25.9248 0 0
25.9248 0 0
26.0217 0 0
26.0217 0 0
26.1187 0 0
26.1187 0 0
26.2156 0 0
26.2156 0 0
26.3125 0 0
26.3125 0 0
26.4094 0 0
26.4094 0 0
26.5063 0 0
26.5063 0 0
26.6033 0 0
26.6033 0 0
26.7002 0 0
26.7002 0 0
26.7971 0 0
26.7971 0 0
26.894 0 0
26.894 0 0
26.991 0 0
26.991 0 0
27.0879 0 0
27.0879 0 0
27.1848 0 0
27.1848 0 0
27.2817 0 0
27.2817 0 0
27.3787 0 0
27.3787 0 0
27.4756 0 0
27.4756 0 0
27.5725 0 0
27.5725 0 0
27.6694 0 0
27.6694 0 0
27.7664 0 0
27.7664 0 0
27.8633 0 0
27.8633 0 0
27.9602 0 0
27.9602 0 0
28.0571 0 0
28.0571 0 0
28.1541 0 0
28.1541 0 0
28.251 0 0
28.251 0 0
28.3479 0 0
28.3479 0 0
28.4448 0 0
28.4448 0 0
28.5417 0 0
28.5417 0 0
28.6387 0 0
28.6387 0 0
28.7356 0 0
28.7356 0 0
28.8325 0 0
28.8325 0 0
28.9294 0 0
28.9294 0 0
29.0264 0 0
29.0264 0 0
29.1233 0 0
29.1233 0 0
29.2202 0 0
29.2202 0 0
29.3171 0 0
29.3171 0 0
29.4141 0 0
29.4141 0 0
29.511 0 0
29.511 0 0
29.6079 0 0
29.6079 0 0
29.7048 0 0
29.7048 0 0
29.8018 0 0
29.8018 0 0
29.8987 0 0
29.8987 0 0
29.9956 0 0
29.9956 0 0
30.0925 0 0
30.0925 0 0
30.1895 0 0
30.1895 0 0
30.2864 0 0
30.2864 0 0
30.3833 0 0
30.3833 0 0
30.4802 0 0
30.4802 0 0
30.5771 0 0
30.5771 0 0
30.6741 0 0
30.6741 0 0
30.771 0 0
30.771 0 0
30.8679 0 0
30.8679 0 0
30.9648 0 0
30.9648 0 0
31.0618 0 0
31.0618 0 0
31.1587 0 0
31.1587 0 0
31.2556 0 0
31.2556 0 0
31.3525 0 0
31.3525 0 0
31.4495 0 0
31.4495 0 0
31.5464 0 0
31.5464 0 0
31.6433 0 0
31.6433 0 0
31.7402 0 0
31.7402 0 0
31.8372 0 0
31.8372 0 0
31.9341 0 0
31.9341 0 0
32.031 0 0
32.031 0 0
32.1279 0 0
32.1279 0 0
32.2249 0 0
32.2249 0 0
32.3218 0 0
32.3218 0 0
32.4187 0 0
32.4187 0 0
32.5156 0 0
32.5156 0 0
32.6125 0 0
32.6125 0 0
32.7095 0 0
32.7095 0 0
32.8064 0 0
32.8064 0 0
32.9033 0 0
32.9033 0 0
33.0002 0 0
33.0002 0 0
33.0972 0 0
33.0972 0 0
33.1941 0 0
33.1941 0 0
33.291 0 0
33.291 0 0
33.3879 0 0
33.3879 0 0
33.4849 0 0
33.4849 0 0
33.5818 0 0
33.5818 0 0
33.6787 0 0
33.6787 0 0
33.7756 0 0
33.7756 0 0
33.8726 0 0
33.8726 0 0
33.9695 0 0
33.9695 0 0
34.0664 0 0
34.0664 0 0
34.1633 0 0
34.1633 0 0
34.2603 0 0
34.2603 0 0
34.3572 0 0
34.3572 0 0
34.4541 0 0
34.4541 0 0
34.551 0 0
34.551 0 0
34.6479 0 0
34.6479 0 0
34.7449 0 0
34.7449 0 0
34.8418 0 0
34.8418 0 0
34.9387 0 0
34.9387 0 0
35.0356 0 0
35.0356 0 0
35.1326 0 0
35.1326 0 0
35.2295 0 0
35.2295 0 0
35.3264 0 0
35.3264 0 0
35.4233 0 0
35.4233 0 0
35.5203 0 0
35.5203 0 0
35.6172 0 0
35.6172 0 0
35.7141 0 0
35.7141 0 0
35.811 0 0
35.811 0 0
35.908 0 0
35.908 0 0
36.0049 0 0
36.0049 0 0
36.1018 0 0
36.1018 0 0
36.1987 0 0
36.1987 0 0
36.2957 0 0
36.2957 0 0
36.3926 0 0
36.3926 0 0
36.4895 0 0
36.4895 0 0
36.5864 0 0
36.5864 0 0
36.6833 0 0
36.6833 0 0
36.7803 0 0
36.7803 0 0
36.8772 0 0
36.8772 0 0
36.9741 0 0
36.9741 0 0
37.071 0 0
37.071 0 0
37.168 0 0
37.168 0 0
37.2649 0 0
37.2649 0 0
37.3618 0 0
37.3618 0 0
37.4587 0 0
37.4587 0 0
37.5557 0 0
37.5557 0 0
37.6526 0 0
37.6526 0 0
37.7495 0 0
37.7495 0 0
37.8464 0 0
37.8464 0 0
37.9434 0 0
37.9434 0 0
38.0403 0 0
38.0403 0 0
38.1372 0 0
38.1372 0 0
38.2341 0 0
38.2341 0 0
38.3311 0 0
38.3311 0 0
38.428 0 0
38.428 0 0
38.5249 0 0
38.5249 0 0
38.6218 0 0
38.6218 0 0
38.7188 0 0
38.7188 0 0
38.8157 0 0
38.8157 0 0
38.9126 0 0
38.9126 0 0
39.0095 0 0
39.0095 0 0
39.1064 0 0
39.1064 0 0
39.2034 0 0
39.2034 0 0
39.3003 0 0
39.3003 0 0
39.3972 0 0
39.3972 0 0
39.4941 0 0
39.4941 0 0
39.5911 0 0
39.5911 0 0
39.688 0 0
39.688 0 0
39.7849 0 0
39.7849 0 0
39.8818 0 0
39.8818 0 0
39.9788 0 0
39.9788 0 0
40.0757 0 0
40.0757 0 0
40.1726 0 0
40.1726 0 0
40.2695 0 0
40.2695 0 0
40.3665 0 0
40.3665 0 0
40.4634 0 0
40.4634 0 0
40.5603 0 0
40.5603 0 0
40.6572 0 0
40.6572 0 0
40.7542 0 0
40.7542 0 0
40.8511 0 0
40.8511 0 0
40.948 0 0
40.948 0 0
41.0449 0 0
41.0449 0 0
41.1418 0 0
41.1418 0 0
41.2388 0 0
41.2388 0 0
41.3357 0 0
41.3357 0 0
41.4326 0 0
41.4326 0 0
41.5295 0 0
41.5295 0 0
[...]
POINT_DATA 4096
SCALARS solution_0 double 1
LOOKUP_TABLE default
27.5617 26.9802 26.9802 26.4866 26.4866 26.0632 26.0632 25.6965 25.6965 25.3761 25.3761 25.0936 25.0936 24.8424 24.8424 24.6173 24.6173 24.414 24.414 24.2289 24.2289 24.0592 24.0592 23.9024 23.9024 23.7567 23.7567 23.6203 23.6203 23.4918 23.4918 23.3701 23.3701 23.2541 23.2541 23.143 23.143 23.0361 23.0361 22.9326 22.9326 22.8322 22.8322 22.7343 22.7343 22.6385 22.6385 22.5446 22.5446 22.4521 22.4521 22.3609 22.3609 22.2706 22.2706 22.1812 22.1812 22.0925 22.0925 22.0043 22.0043 21.9165 21.9165 21.829 21.829 21.7416 21.7416 21.6544 21.6544 21.5673 21.5673 21.4801 21.4801 21.3929 21.3929 21.3056 21.3056 21.2181 21.2181 21.1305 21.1305 21.0427 21.0427 20.9548 20.9548 20.8666 20.8666 20.7782 20.7782 20.6895 20.6895 20.6007 20.6007 20.5116 20.5116 20.4222 20.4222 20.3326 20.3326 20.2428 20.2428 20.1528 20.1528 20.0625 20.0625 19.9721 19.9721 19.8814 19.8814 19.7905 19.7905 19.6995 19.6995 19.6083 19.6083 19.5169 19.5169 19.4254 19.4254 19.3338 19.3338 19.242 19.242 19.1502 19.1502 19.0582 19.0582 18.9662 18.9662 18.8741 18.8741 18.782 18.782 18.6899 18.6899 18.5978 18.5978 18.5057 18.5057 18.4136 18.4136 18.3215 18.3215 18.2295 18.2295 18.1376 18.1376 18.0457 18.0457 17.954 17.954 17.8623 17.8623 17.7707 17.7707 17.6791 17.6791 17.5877 17.5877 17.4964 17.4964 17.4051 17.4051 17.3139 17.3139 17.2227 17.2227 17.1316 17.1316 17.0405 17.0405 16.9494 16.9494 16.8583 16.8583 16.7671 16.7671 16.6759 16.6759 16.5847 16.5847 16.4934 16.4934 16.402 16.402 16.3105 16.3105 16.2189 16.2189 16.1273 16.1273 16.0355 16.0355 15.9437 15.9437 15.8518 15.8518 15.7599 15.7599 15.668 15.668 15.5761 15.5761 15.4842 15.4842 15.3924 15.3924 15.3007 15.3007 15.2091 15.2091 15.1177 15.1177 15.0265 15.0265 14.9355 14.9355 14.8449 14.8449 14.7545 14.7545 14.6645 14.6645 14.5749 14.5749 14.4857 14.4857 14.3969 14.3969 14.3085 14.3085 14.2205 14.2205 14.1326 14.1326 14.0448 14.0448 13.9567 13.9567 13.8681 13.8681 13.7783 13.7783 13.6867 13.6867 13.5923 13.5923 13.494 13.494 13.3905 13.3905 13.2805 13.2805 13.1625 13.1625 13.0351 13.0351 12.8974 12.8974 12.7486 12.7486 12.5891 12.5891 12.4197 12.4197 12.2425 12.2425 12.0604 12.0604 11.8772 11.8772 11.6974 11.6974 11.5255 11.5255 11.3659 11.3659 11.2219 11.2219 11.096 11.096 10.9891 10.9891 10.9008 10.9008 10.8294 10.8294 10.7727 10.7727 10.7281 10.7281 10.6937 10.6937 10.6682 10.6682 10.6512 10.6512 10.6437 10.6437 10.647 10.647 10.6631 10.6631 10.6938 10.6938 10.7409 10.7409 10.8055 10.8055 10.8882 10.8882 10.9893 10.9893 11.1088 11.1088 11.2464 11.2464 11.4015 11.4015 11.5734 11.5734 11.7609 11.7609 11.9626 11.9626 12.1762 12.1762 12.3994 12.3994 12.6289 12.6289 12.8615 12.8615 13.0932 13.0932 13.3201 13.3201 13.538 13.538 13.7424 13.7424 13.9291 13.9291 14.0939 14.0939 14.2326 14.2326 14.3418 14.3418 14.4183 14.4183 14.4594 14.4594 14.4633 14.4633 14.4288 14.4288 14.3554 14.3554 14.2436 14.2436 14.0945 14.0945 13.9101 13.9101 13.6929 13.6929 13.4462 13.4462 13.1737 13.1737 12.8796 12.8796 12.5682 12.5682 12.244 12.244 11.9117 11.9117 11.5755 11.5755 11.2398 11.2398 10.9083 10.9083 10.5846 10.5846 10.2715 10.2715 9.97169 9.97169 9.68703 9.68703 9.41899 9.41899 9.16852 9.16852 8.93609 8.93609 8.72175 8.72175 8.52518 8.52518 8.34577 8.34577 8.18263 8.18263 8.03471 8.03471 7.90081 7.90081 7.77968 7.77968 7.67001 7.67001 7.57052 7.57052 7.47998 7.47998 7.39722 7.39722 7.32114 7.32114 7.25078 7.25078 7.18525 7.18525 7.12377 7.12377 7.06568 7.06568 7.01039 7.01039 6.95742 6.95742 6.90637 6.90637 6.8569 6.8569 6.80875 6.80875 6.76168 6.76168 6.71554 6.71554 6.67018 6.67018 6.62549 6.62549 6.5814 6.5814 6.53784 6.53784 6.49475 6.49475 6.45212 6.45212 6.40989 6.40989 6.36806 6.36806 6.32662 6.32662 6.28553 6.28553 6.24481 6.24481 6.20443 6.20443 6.16439 6.16439 6.12469 6.12469 6.08532 6.08532 6.04628 6.04628 6.00757 6.00757 5.96917 5.96917 5.93109 5.93109 5.89332 5.89332 5.85586 5.85586 5.81871 5.81871 5.78186 5.78186 5.74531 5.74531 5.70905 5.70905 5.67309 5.67309 5.63742 5.63742 5.60204 5.60204 5.56694 5.56694 5.53212 5.53212 5.49758 5.49758 5.46331 5.46331 5.42932 5.42932 5.3956 5.3956 5.36215 5.36215 5.32896 5.32896 5.29603 5.29603 5.26336 5.26336 5.23095 5.23095 5.19879 5.19879 5.16688 5.16688 5.13522 5.13522 5.1038 5.1038 5.07263 5.07263 5.0417 5.0417 5.01101 5.01101 4.98056 4.98056 4.95034 4.95034 4.92035 4.92035 4.89059 4.89059 4.86105 4.86105 4.83174 4.83174 4.80266 4.80266 4.77379 4.77379 4.74514 4.74514 4.71671 4.71671 4.68849 4.68849 4.66048 4.66048 4.63268 4.63268 4.60509 4.60509 4.5777 4.5777 4.55052 4.55052 4.52354 4.52354 4.49676 4.49676 4.47017 4.47017 4.44378 4.44378 4.41758 4.41758 4.39158 4.39158 4.36576 4.36576 4.34014 4.34014 4.3147 4.3147 4.28944 4.28944 4.26437 4.26437 4.23947 4.23947 4.21476 4.21476 4.19022 4.19022 4.16586 4.16586 4.14168 4.14168 4.11766 4.11766 4.09382 4.09382 4.07014 4.07014 4.04664 4.04664 4.0233 4.0233 4.00012 4.00012 3.97711 3.97711 3.95425 3.95425 3.93156 3.93156 3.90903 3.90903 3.88665 3.88665 3.86443 3.86443 3.84236 3.84236 3.82045 3.82045 3.79869 3.79869 3.77707 3.77707 3.75561 3.75561 3.73429 3.73429 3.71312 3.71312 3.69209 3.69209 3.67121 3.67121 3.65046 3.65046 3.62986 3.62986 3.6094 3.6094 3.58908 3.58908 3.56889 3.56889 3.54884 3.54884 3.52892 3.52892 3.50913 3.50913 3.48948 3.48948 3.46996 3.46996 3.45057 3.45057 3.4313 3.4313 3.41217 3.41217 3.39316 3.39316 3.37428 3.37428 3.35552 3.35552 3.33688 3.33688 3.31836 3.31836 3.29997 3.29997 3.28169 3.28169 3.26354 3.26354 3.2455 3.2455 3.22758 3.22758 3.20977 3.20977 3.19208 3.19208 3.17451 3.17451 3.15704 3.15704 3.13969 3.13969 3.12245 3.12245 3.10532 3.10532 3.0883 3.0883 3.07138 3.07138 3.05458 3.05458 3.03788 3.03788 3.02128 3.02128 3.00479 3.00479 2.98841 2.98841 2.97212 2.97212 2.95594 2.95594 2.93986 2.93986 2.92388 2.92388 2.908 2.908 2.89222 2.89222 2.87653 2.87653 2.86094 2.86094 2.84545 2.84545 2.83006 2.83006 2.81475 2.81475 2.79955 2.79955 2.78443 2.78443 2.76941 2.76941 2.75448 2.75448 2.73964 2.73964 2.72489 2.72489 2.71023 2.71023 2.69566 2.69566 2.68118 2.68118 2.66678 2.66678 2.65247 2.65247 2.63825 2.63825 2.62411 2.62411 2.61006 2.61006 2.59609 2.59609 2.5822 2.5822 2.5684 2.5684 2.55468 2.55468 2.54104 2.54104 2.52748 2.52748 2.514 2.514 2.5006 2.5006 2.48728 2.48728 2.47403 2.47403 2.46087 2.46087 2.44778 2.44778 2.43477 2.43477 2.42183 2.42183 2.40897 2.40897 2.39618 2.39618 2.38347 2.38347 2.37083 2.37083 2.35826 2.35826 2.34577 2.34577 2.33335 2.33335 2.32099 2.32099 2.30871 2.30871 2.2965 2.2965 2.28436 2.28436 2.27229 2.27229 2.26029 2.26029 2.24836 2.24836 2.23649 2.23649 2.22469 2.22469 2.21296 2.21296 2.20129 2.20129 2.18969 2.18969 2.17815 2.17815 2.16668 2.16668 2.15527 2.15527 2.14393 2.14393 2.13265 2.13265 2.12143 2.12143 2.11028 2.11028 2.09919 2.09919 2.08815 2.08815 2.07718 2.07718 2.06627 2.06627 2.05542 2.05542 2.04463 2.04463 2.0339 2.0339 2.02323 2.02323 2.01261 2.01261 2.00206 2.00206 1.99156 1.99156 1.98112 1.98112 1.97073 1.97073 1.96041 1.96041 1.95013 1.95013 1.93992 1.93992 1.92976 1.92976 1.91965 1.91965 1.9096 1.9096 1.8996 1.8996 1.88965 1.88965 1.87976 1.87976 1.86992 1.86992 1.86014 1.86014 1.8504 1.8504 1.84072 1.84072 1.83109 1.83109 1.82151 1.82151 1.81198 1.81198 1.8025 1.8025 1.79307 1.79307 1.78369 1.78369 1.77436 1.77436 1.76508 1.76508 1.75585 1.75585 1.74667 1.74667 1.73753 1.73753 1.72844 1.72844 1.7194 1.7194 1.71041 1.71041 1.70146 1.70146 1.69256 1.69256 1.6837 1.6837 1.67489 1.67489 1.66613 1.66613 1.65741 1.65741 1.64874 1.64874 1.64011 1.64011 1.63152 1.63152 1.62298 1.62298 1.61449 1.61449 1.60603 1.60603 1.59762 1.59762 1.58925 1.58925 1.58093 1.58093 1.57264 1.57264 1.5644 1.5644 1.5562 1.5562 1.54805 1.54805 1.53993 1.53993 1.53185 1.53185 1.52382 1.52382 1.51582 1.51582 1.50787 1.50787 1.49995 1.49995 1.49207 1.49207 1.48424 1.48424 1.47644 1.47644 1.46868 1.46868 1.46096 1.46096 1.45328 1.45328 1.44563 1.44563 1.43803 1.43803 1.43046 1.43046 1.42293 1.42293 1.41543 1.41543 1.40798 1.40798 1.40056 1.40056 1.39317 1.39317 1.38582 1.38582 1.37851 1.37851 1.37123 1.37123 1.36399 1.36399 1.35679 1.35679 1.34962 1.34962 1.34248 1.34248 1.33538 1.33538 1.32831 1.32831 1.32128 1.32128 1.31428 1.31428 1.30731 1.30731 1.30038 1.30038 1.29348 1.29348 1.28662 1.28662 1.27979 1.27979 1.27299 1.27299 1.26622 1.26622 1.25948 1.25948 1.25278 1.25278 1.24611 1.24611 1.23947 1.23947 1.23286 1.23286 1.22629 1.22629 1.21974 1.21974 1.21323 1.21323 1.20674 1.20674 1.20029 1.20029 1.19387 1.19387 1.18747 1.18747 1.18111 1.18111 1.17478 1.17478 1.16848 1.16848 1.1622 1.1622 1.15596 1.15596 1.14974 1.14974 1.14356 1.14356 1.1374 1.1374 1.13127 1.13127 1.12517 1.12517 1.1191 1.1191 1.11306 1.11306 1.10704 1.10704 1.10105 1.10105 1.09509 1.09509 1.08916 1.08916 1.08325 1.08325 1.07737 1.07737 1.07152 1.07152 1.0657 1.0657 1.0599 1.0599 1.05413 1.05413 1.04838 1.04838 1.04266 1.04266 1.03697 1.03697 1.0313 1.0313 1.02566 1.02566 1.02004 1.02004 1.01445 1.01445 1.00889 1.00889 1.00335 1.00335 0.997832 0.997832 0.992341 0.992341 0.986875 0.986875 0.981434 0.981434 0.976018 0.976018 0.970625 0.970625 0.965257 0.965257 0.959913 0.959913 0.954592 0.954592 0.949296 0.949296 0.944023 0.944023 0.938773 0.938773 0.933547 0.933547 0.928344 0.928344 0.923164 0.923164 0.918007 0.918007 0.912873 0.912873 0.907761 0.907761 0.902672 0.902672 0.897606 0.897606 0.892562 0.892562 0.88754 0.88754 0.88254 0.88254 0.877562 0.877562 0.872606 0.872606 0.867671 0.867671 0.862758 0.862758 0.857867 0.857867 0.852996 0.852996 0.848148 0.848148 0.84332 0.84332 0.838513 0.838513 0.833727 0.833727 0.828962 0.828962 0.824217 0.824217 0.819493 0.819493 0.814789 0.814789 0.810106 0.810106 0.805443 0.805443 0.8008 0.8008 0.796177 0.796177 0.791574 0.791574 0.78699 0.78699 0.782426 0.782426 0.777882 0.777882 0.773357 0.773357 0.768852 0.768852 0.764366 0.764366 0.759898 0.759898 0.75545 0.75545 0.751021 0.751021 0.746611 0.746611 0.742219 0.742219 0.737846 0.737846 0.733492 0.733492 0.729156 0.729156 0.724838 0.724838 0.720538 0.720538 0.716257 0.716257 0.711994 0.711994 0.707748 0.707748 0.703521 0.703521 0.699311 0.699311 0.695119 0.695119 0.690944 0.690944 0.686787 0.686787 0.682647 0.682647 0.678525 0.678525 0.674419 0.674419 0.670331 0.670331 0.66626 0.66626 0.662206 0.662206 0.658168 0.658168 0.654148 0.654148 0.650144 0.650144 0.646156 0.646156 0.642185 0.642185 0.638231 0.638231 0.634293 0.634293 0.630371 0.630371 0.626465 0.626465 0.622575 0.622575 0.618702 0.618702 0.614844 0.614844 0.611002 0.611002 0.607176 0.607176 0.603365 0.603365 0.59957 0.59957 0.595791 0.595791 0.592027 0.592027 0.588278 0.588278 0.584544 0.584544 0.580826 0.580826 0.577123 0.577123 0.573435 0.573435 0.569762 0.569762 0.566104 0.566104 0.56246 0.56246 0.558831 0.558831 0.555217 0.555217 0.551618 0.551618 0.548033 0.548033 0.544462 0.544462 0.540906 0.540906 0.537364 0.537364 0.533837 0.533837 0.530323 0.530323 0.526824 0.526824 0.523339 0.523339 0.519867 0.519867 0.51641 0.51641 0.512966 0.512966 0.509536 0.509536 0.50612 0.50612 0.502717 0.502717 0.499328 0.499328 0.495952 0.495952 0.49259 0.49259 0.489241 0.489241 0.485905 0.485905 0.482583 0.482583 0.479273 0.479273 0.475977 0.475977 0.472694 0.472694 0.469424 0.469424 0.466166 0.466166 0.462922 0.462922 0.45969 0.45969 0.456471 0.456471 0.453264 0.453264 0.45007 0.45007 0.446889 0.446889 0.44372 0.44372 0.440563 0.440563 0.437419 0.437419 0.434287 0.434287 0.431167 0.431167 0.42806 0.42806 0.424964 0.424964 0.421881 0.421881 0.418809 0.418809 0.41575 0.41575 0.412702 0.412702 0.409666 0.409666 0.406642 0.406642 0.40363 0.40363 0.400629 0.400629 0.39764 0.39764 0.394662 0.394662 0.391696 0.391696 0.388742 0.388742 0.385798 0.385798 0.382866 0.382866 0.379945 0.379945 0.377036 0.377036 0.374138 0.374138 0.37125 0.37125 0.368374 0.368374 0.365509 0.365509 0.362655 0.362655 0.359811 0.359811 0.356979 0.356979 0.354157 0.354157 0.351346 0.351346 0.348546 0.348546 0.345756 0.345756 0.342977 0.342977 0.340209 0.340209 0.337451 0.337451 0.334703 0.334703 0.331966 0.331966 0.329239 0.329239 0.326523 0.326523 0.323816 0.323816 0.32112 0.32112 0.318434 0.318434 0.315759 0.315759 0.313093 0.313093 0.310437 0.310437 0.307792 0.307792 0.305156 0.305156 0.30253 0.30253 0.299914 0.299914 0.297308 0.297308 0.294712 0.294712 0.292125 0.292125 0.289548 0.289548 0.28698 0.28698 0.284422 0.284422 0.281874 0.281874 0.279335 0.279335 0.276806 0.276806 0.274286 0.274286 0.271775 0.271775 0.269274 0.269274 0.266782 0.266782 0.264299 0.264299 0.261826 0.261826 0.259361 0.259361 0.256906 0.256906 0.254459 0.254459 0.252022 0.252022 0.249594 0.249594 0.247175 0.247175 0.244764 0.244764 0.242363 0.242363 0.23997 0.23997 0.237586 0.237586 0.235211 0.235211 0.232845 0.232845 0.230487 0.230487 0.228138 0.228138 0.225797 0.225797 0.223465 0.223465 0.221142 0.221142 0.218827 0.218827 0.21652 0.21652 0.214222 0.214222 0.211933 0.211933 0.209651 0.209651 0.207378 0.207378 0.205113 0.205113 0.202857 0.202857 0.200608 0.200608 0.198368 0.198368 0.196136 0.196136 0.193912 0.193912 0.191696 0.191696 0.189488 0.189488 0.187288 0.187288 0.185096 0.185096 0.182912 0.182912 0.180736 0.180736 0.178567 0.178567 0.176407 0.176407 0.174254 0.174254 0.172109 0.172109 0.169971 0.169971 0.167841 0.167841 0.165719 0.165719 0.163605 0.163605 0.161498 0.161498 0.159399 0.159399 0.157307 0.157307 0.155223 0.155223 0.153146 0.153146 0.151076 0.151076 0.149014 0.149014 0.146959 0.146959 0.144912 0.144912 0.142872 0.142872 0.140839 0.140839 0.138813 0.138813 0.136795 0.136795 0.134783 0.134783 0.132779 0.132779 0.130782 0.130782 0.128792 0.128792 0.126809 0.126809 0.124833 0.124833 0.122864 0.122864 0.120902 0.120902 0.118947 0.118947 0.116999 0.116999 0.115058 0.115058 0.113124 0.113124 0.111196 0.111196 0.109275 0.109275 0.107361 0.107361 0.105454 0.105454 0.103553 0.103553 0.101659 0.101659 0.0997716 0.0997716 0.0978909 0.0978909 0.0960167 0.0960167 0.0941492 0.0941492 0.0922881 0.0922881 0.0904336 0.0904336 0.0885855 0.0885855 0.0867439 0.0867439 0.0849087 0.0849087 0.0830799 0.0830799 0.0812575 0.0812575 0.0794415 0.0794415 0.0776317 0.0776317 0.0758283 0.0758283 0.0740311 0.0740311 0.0722401 0.0722401 0.0704554 0.0704554 0.0686769 0.0686769 0.0669045 0.0669045 0.0651383 0.0651383 0.0633782 0.0633782 0.0616242 0.0616242 0.0598762 0.0598762 0.0581343 0.0581343 0.0563984 0.0563984 0.0546685 0.0546685 0.0529446 0.0529446 0.0512266 0.0512266 0.0495146 0.0495146 0.0478084 0.0478084 0.0461081 0.0461081 0.0444136 0.0444136 0.042725 0.042725 0.0410422 0.0410422 0.0393651 0.0393651 0.0376938 0.0376938 0.0360283 0.0360283 0.0343684 0.0343684 0.0327143 0.0327143 0.0310657 0.0310657 0.0294229 0.0294229 0.0277856 0.0277856 0.026154 0.026154 0.0245279 0.0245279 0.0229073 0.0229073 0.0212923 0.0212923 0.0196828 0.0196828 0.0180788 0.0180788 0.0164803 0.0164803 0.0148871 0.0148871 0.0132994 0.0132994 0.0117171 0.0117171 0.0101402 0.0101402 0.00856862 0.00856862 0.00700238 0.00700238 0.00544145 0.00544145 0.0038858 0.0038858 0.00233543 0.00233543 0.000790308 0.000790308 -0.000749587 -0.000749587 -0.00228427 -0.00228427 -0.00381378 -0.00381378 -0.00533811 -0.00533811 -0.0068573 -0.0068573 -0.00837136 -0.00837136 -0.00988032 -0.00988032 -0.0113842 -0.0113842 -0.012883 -0.012883 -0.0143768 -0.0143768 -0.0158655 -0.0158655 -0.0173492 -0.0173492 -0.018828 -0.018828 -0.0203017 -0.0203017 -0.0217705 -0.0217705 -0.0232344 -0.0232344 -0.0246934 -0.0246934 -0.0261475 -0.0261475 -0.0275967 -0.0275967 -0.0290411 -0.0290411 -0.0304807 -0.0304807 -0.0319154 -0.0319154 -0.0333453 -0.0333453 -0.0347704 -0.0347704 -0.0361908 -0.0361908 -0.0376065 -0.0376065 -0.0390174 -0.0390174 -0.0404236 -0.0404236 -0.0418251 -0.0418251 -0.043222 -0.043222 -0.0446142 -0.0446142 -0.0460018 -0.0460018 -0.0473848 -0.0473848 -0.0487631 -0.0487631 -0.0501369 -0.0501369 -0.0515061 -0.0515061 -0.0528708 -0.0528708 -0.054231 -0.054231 -0.0555866 -0.0555866 -0.0569378 -0.0569378 -0.0582845 -0.0582845 -0.0596267 -0.0596267 -0.0609644 -0.0609644 -0.0622978 -0.0622978 -0.0636267 -0.0636267 -0.0649513 -0.0649513 -0.0662715 -0.0662715 -0.0675873 -0.0675873 -0.0688988 -0.0688988 -0.0702059 -0.0702059 -0.0715088 -0.0715088 -0.0728073 -0.0728073 -0.0741016 -0.0741016 -0.0753916 -0.0753916 -0.0766774 -0.0766774 -0.0779589 -0.0779589 -0.0792363 -0.0792363 -0.0805094 -0.0805094 -0.0817784 -0.0817784 -0.0830431 -0.0830431 -0.0843038 -0.0843038 -0.0855603 -0.0855603 -0.0868127 -0.0868127 -0.088061 -0.088061 -0.0893052 -0.0893052 -0.0905453 -0.0905453 -0.0917814 -0.0917814 -0.0930134 -0.0930134 -0.0942414 -0.0942414 -0.0954654 -0.0954654 -0.0966854 -0.0966854 -0.0979014 -0.0979014 -0.0991134 -0.0991134 -0.100322 -0.100322 -0.101526 -0.101526 -0.102726 -0.102726 -0.103922 -0.103922 -0.105115 -0.105115 -0.106303 -0.106303 -0.107488 -0.107488 -0.108669 -0.108669 -0.109846 -0.109846 -0.111019 -0.111019 -0.112188 -0.112188 -0.113354 -0.113354 -0.114516 -0.114516 -0.115674 -0.115674 -0.116828 -0.116828 -0.117978 -0.117978 -0.119125 -0.119125 -0.120268 -0.120268 -0.121408 -0.121408 -0.122543 -0.122543 -0.123676 -0.123676 -0.124804 -0.124804 -0.125929 -0.125929 -0.12705 -0.12705 -0.128167 -0.128167 -0.129281 -0.129281 -0.130391 -0.130391 -0.131498 -0.131498 -0.132601 -0.132601 -0.133701 -0.133701 -0.134797 -0.134797 -0.135889 -0.135889 -0.136978 -0.136978 -0.138064 -0.138064 -0.139146 -0.139146 -0.140224 -0.140224 -0.1413 -0.1413 -0.142371 -0.142371 -0.143439 -0.143439 -0.144504 -0.144504 -0.145565 -0.145565 -0.146623 -0.146623 -0.147678 -0.147678 -0.148729 -0.148729 -0.149777 -0.149777 -0.150821 -0.150821 -0.151863 -0.151863 -0.1529 -0.1529 -0.153935 -0.153935 -0.154966 -0.154966 -0.155994 -0.155994 -0.157018 -0.157018 -0.15804 -0.15804 -0.159058 -0.159058 -0.160073 -0.160073 -0.161084 -0.161084 -0.162093 -0.162093 -0.163098 -0.163098 -0.1641 -0.1641 -0.165098 -0.165098 -0.166094 -0.166094 -0.167086 -0.167086 -0.168076 -0.168076 -0.169062 -0.169062 -0.170045 -0.170045 -0.171024 -0.171024 -0.172001 -0.172001 -0.172975 -0.172975 -0.173945 -0.173945 -0.174913 -0.174913 -0.175877 -0.175877 -0.176839 -0.176839 -0.177797 -0.177797 -0.178752 -0.178752 -0.179704 -0.179704 -0.180654 -0.180654 -0.1816 -0.1816 -0.182543 -0.182543 -0.183483 -0.183483 -0.18442 -0.18442 -0.185355 -0.185355 -0.186286 -0.186286 -0.187214 -0.187214 -0.18814 -0.18814 -0.189062 -0.189062 -0.189982 -0.189982 -0.190899 -0.190899 -0.191813 -0.191813 -0.192724 -0.192724 -0.193632 -0.193632 -0.194537 -0.194537 -0.195439 -0.195439 -0.196339 -0.196339 -0.197236 -0.197236 -0.19813 -0.19813 -0.199021 -0.199021 -0.199909 -0.199909 -0.200794 -0.200794 -0.201677 -0.201677 -0.202557 -0.202557 -0.203434 -0.203434 -0.204309 -0.204309 -0.20518 -0.20518 -0.206049 -0.206049 -0.206915 -0.206915 -0.207779 -0.207779 -0.20864 -0.20864 -0.209498 -0.209498 -0.210353 -0.210353 -0.211206 -0.211206 -0.212056 -0.212056 -0.212903 -0.212903 -0.213748 -0.213748 -0.21459 -0.21459 -0.215429 -0.215429 -0.216266 -0.216266 -0.2171 -0.2171 -0.217932 -0.217932 -0.218761 -0.218761 -0.219587 -0.219587 -0.220411 -0.220411 -0.221233 -0.221233 -0.222051 -0.222051 -0.222867 -0.222867 -0.223681 -0.223681 -0.224492 -0.224492 -0.225301 -0.225301 -0.226107 -0.226107 -0.22691 -0.22691 -0.227711 -0.227711 -0.22851 -0.22851 -0.229306 -0.229306 -0.230099 -0.230099 -0.23089 -0.23089 -0.231679 -0.231679 -0.232465 -0.232465 -0.233249 -0.233249 -0.23403 -0.23403 -0.234809 -0.234809 -0.235585 -0.235585 -0.236359 -0.236359 -0.237131 -0.237131 -0.2379 -0.2379 -0.238667 -0.238667 -0.239431 -0.239431 -0.240193 -0.240193 -0.240953 -0.240953 -0.24171 -0.24171 -0.242465 -0.242465 -0.243218 -0.243218 -0.243968 -0.243968 -0.244716 -0.244716 -0.245462 -0.245462 -0.246205 -0.246205 -0.246946 -0.246946 -0.247685 -0.247685 -0.248422 -0.248422 -0.249156 -0.249156 -0.249888 -0.249888 -0.250617 -0.250617 -0.251345 -0.251345 -0.25207 -0.25207 -0.252793 -0.252793 -0.253514 -0.253514 -0.254232 -0.254232 -0.254948 -0.254948 -0.255662 -0.255662 -0.256374 -0.256374 -0.257084 -0.257084 -0.257791 -0.257791 -0.258496 -0.258496 -0.25