# vtk DataFile Version 3.0
#This file was generated by the deal.II library on 2020/9/6 at 3:10:49
ASCII
DATASET UNSTRUCTURED_GRID

POINTS 4096 double
1.5 0 0
1.59692 0 0
1.59692 0 0
1.69385 0 0
1.69385 0 0
1.79077 0 0
1.79077 0 0
1.8877 0 0
1.8877 0 0
1.98462 0 0
1.98462 0 0
2.08154 0 0
2.08154 0 0
2.17847 0 0
2.17847 0 0
2.27539 0 0
2.27539 0 0
2.37231 0 0
2.37231 0 0
2.46924 0 0
2.46924 0 0
2.56616 0 0
2.56616 0 0
2.66309 0 0
2.66309 0 0
2.76001 0 0
2.76001 0 0
2.85693 0 0
2.85693 0 0
2.95386 0 0
2.95386 0 0
3.05078 0 0
3.05078 0 0
3.14771 0 0
3.14771 0 0
3.24463 0 0
3.24463 0 0
3.34155 0 0
3.34155 0 0
3.43848 0 0
3.43848 0 0
3.5354 0 0
3.5354 0 0
3.63232 0 0
3.63232 0 0
3.72925 0 0
3.72925 0 0
3.82617 0 0
3.82617 0 0
3.9231 0 0
3.9231 0 0
4.02002 0 0
4.02002 0 0
4.11694 0 0
4.11694 0 0
4.21387 0 0
4.21387 0 0
4.31079 0 0
4.31079 0 0
4.40771 0 0
4.40771 0 0
4.50464 0 0
4.50464 0 0
4.60156 0 0
4.60156 0 0
4.69849 0 0
4.69849 0 0
4.79541 0 0
4.79541 0 0
4.89233 0 0
4.89233 0 0
4.98926 0 0
4.98926 0 0
5.08618 0 0
5.08618 0 0
5.18311 0 0
5.18311 0 0
5.28003 0 0
5.28003 0 0
5.37695 0 0
5.37695 0 0
5.47388 0 0
5.47388 0 0
5.5708 0 0
5.5708 0 0
5.66772 0 0
5.66772 0 0
5.76465 0 0
5.76465 0 0
5.86157 0 0
5.86157 0 0
5.9585 0 0
5.9585 0 0
6.05542 0 0
6.05542 0 0
6.15234 0 0
6.15234 0 0
6.24927 0 0
6.24927 0 0
6.34619 0 0
6.34619 0 0
6.44312 0 0
6.44312 0 0
6.54004 0 0
6.54004 0 0
6.63696 0 0
6.63696 0 0
6.73389 0 0
6.73389 0 0
6.83081 0 0
6.83081 0 0
6.92773 0 0
6.92773 0 0
7.02466 0 0
7.02466 0 0
7.12158 0 0
7.12158 0 0
7.21851 0 0
7.21851 0 0
7.31543 0 0
7.31543 0 0
7.41235 0 0
7.41235 0 0
7.50928 0 0
7.50928 0 0
7.6062 0 0
7.6062 0 0
7.70312 0 0
7.70312 0 0
7.80005 0 0
7.80005 0 0
7.89697 0 0
7.89697 0 0
7.9939 0 0
7.9939 0 0
8.09082 0 0
8.09082 0 0
8.18774 0 0
8.18774 0 0
8.28467 0 0
8.28467 0 0
8.38159 0 0
8.38159 0 0
8.47852 0 0
8.47852 0 0
8.57544 0 0
8.57544 0 0
8.67236 0 0
8.67236 0 0
8.76929 0 0
8.76929 0 0
8.86621 0 0
8.86621 0 0
8.96313 0 0
8.96313 0 0
9.06006 0 0
9.06006 0 0
9.15698 0 0
9.15698 0 0
9.25391 0 0
9.25391 0 0
9.35083 0 0
9.35083 0 0
9.44775 0 0
9.44775 0 0
9.54468 0 0
9.54468 0 0
9.6416 0 0
9.6416 0 0
9.73853 0 0
9.73853 0 0
9.83545 0 0
9.83545 0 0
9.93237 0 0
9.93237 0 0
10.0293 0 0
10.0293 0 0
10.1262 0 0
10.1262 0 0
10.2231 0 0
10.2231 0 0
10.3201 0 0
10.3201 0 0
10.417 0 0
10.417 0 0
10.5139 0 0
10.5139 0 0
10.6108 0 0
10.6108 0 0
10.7078 0 0
10.7078 0 0
10.8047 0 0
10.8047 0 0
10.9016 0 0
10.9016 0 0
10.9985 0 0
10.9985 0 0
11.0955 0 0
11.0955 0 0
11.1924 0 0
11.1924 0 0
11.2893 0 0
11.2893 0 0
11.3862 0 0
11.3862 0 0
11.4832 0 0
11.4832 0 0
11.5801 0 0
11.5801 0 0
11.677 0 0
11.677 0 0
11.7739 0 0
11.7739 0 0
11.8708 0 0
11.8708 0 0
11.9678 0 0
11.9678 0 0
12.0647 0 0
12.0647 0 0
12.1616 0 0
12.1616 0 0
12.2585 0 0
12.2585 0 0
12.3555 0 0
12.3555 0 0
12.4524 0 0
12.4524 0 0
12.5493 0 0
12.5493 0 0
12.6462 0 0
12.6462 0 0
12.7432 0 0
12.7432 0 0
12.8401 0 0
12.8401 0 0
12.937 0 0
12.937 0 0
13.0339 0 0
13.0339 0 0
13.1309 0 0
13.1309 0 0
13.2278 0 0
13.2278 0 0
13.3247 0 0
13.3247 0 0
13.4216 0 0
13.4216 0 0
13.5186 0 0
13.5186 0 0
13.6155 0 0
13.6155 0 0
13.7124 0 0
13.7124 0 0
13.8093 0 0
13.8093 0 0
13.9062 0 0
13.9062 0 0
14.0032 0 0
14.0032 0 0
14.1001 0 0
14.1001 0 0
14.197 0 0
14.197 0 0
14.2939 0 0
14.2939 0 0
14.3909 0 0
14.3909 0 0
14.4878 0 0
14.4878 0 0
14.5847 0 0
14.5847 0 0
14.6816 0 0
14.6816 0 0
14.7786 0 0
14.7786 0 0
14.8755 0 0
14.8755 0 0
14.9724 0 0
14.9724 0 0
15.0693 0 0
15.0693 0 0
15.1663 0 0
15.1663 0 0
15.2632 0 0
15.2632 0 0
15.3601 0 0
15.3601 0 0
15.457 0 0
15.457 0 0
15.554 0 0
15.554 0 0
15.6509 0 0
15.6509 0 0
15.7478 0 0
15.7478 0 0
15.8447 0 0
15.8447 0 0
15.9417 0 0
15.9417 0 0
16.0386 0 0
16.0386 0 0
16.1355 0 0
16.1355 0 0
16.2324 0 0
16.2324 0 0
16.3293 0 0
16.3293 0 0
16.4263 0 0
16.4263 0 0
16.5232 0 0
16.5232 0 0
16.6201 0 0
16.6201 0 0
16.717 0 0
16.717 0 0
16.814 0 0
16.814 0 0
16.9109 0 0
16.9109 0 0
17.0078 0 0
17.0078 0 0
17.1047 0 0
17.1047 0 0
17.2017 0 0
17.2017 0 0
17.2986 0 0
17.2986 0 0
17.3955 0 0
17.3955 0 0
17.4924 0 0
17.4924 0 0
17.5894 0 0
17.5894 0 0
17.6863 0 0
17.6863 0 0
17.7832 0 0
17.7832 0 0
17.8801 0 0
17.8801 0 0
17.9771 0 0
17.9771 0 0
18.074 0 0
18.074 0 0
18.1709 0 0
18.1709 0 0
18.2678 0 0
18.2678 0 0
18.3647 0 0
18.3647 0 0
18.4617 0 0
18.4617 0 0
18.5586 0 0
18.5586 0 0
18.6555 0 0
18.6555 0 0
18.7524 0 0
18.7524 0 0
18.8494 0 0
18.8494 0 0
18.9463 0 0
18.9463 0 0
19.0432 0 0
19.0432 0 0
19.1401 0 0
19.1401 0 0
19.2371 0 0
19.2371 0 0
19.334 0 0
19.334 0 0
19.4309 0 0
19.4309 0 0
19.5278 0 0
19.5278 0 0
19.6248 0 0
19.6248 0 0
19.7217 0 0
19.7217 0 0
19.8186 0 0
19.8186 0 0
19.9155 0 0
19.9155 0 0
20.0125 0 0
20.0125 0 0
20.1094 0 0
20.1094 0 0
20.2063 0 0
20.2063 0 0
20.3032 0 0
20.3032 0 0
20.4001 0 0
20.4001 0 0
20.4971 0 0
20.4971 0 0
20.594 0 0
20.594 0 0
20.6909 0 0
20.6909 0 0
20.7878 0 0
20.7878 0 0
20.8848 0 0
20.8848 0 0
20.9817 0 0
20.9817 0 0
21.0786 0 0
21.0786 0 0
21.1755 0 0
21.1755 0 0
21.2725 0 0
21.2725 0 0
21.3694 0 0
21.3694 0 0
21.4663 0 0
21.4663 0 0
21.5632 0 0
21.5632 0 0
21.6602 0 0
21.6602 0 0
21.7571 0 0
21.7571 0 0
21.854 0 0
21.854 0 0
21.9509 0 0
21.9509 0 0
22.0479 0 0
22.0479 0 0
22.1448 0 0
22.1448 0 0
22.2417 0 0
22.2417 0 0
22.3386 0 0
22.3386 0 0
22.4355 0 0
22.4355 0 0
22.5325 0 0
22.5325 0 0
22.6294 0 0
22.6294 0 0
22.7263 0 0
22.7263 0 0
22.8232 0 0
22.8232 0 0
22.9202 0 0
22.9202 0 0
23.0171 0 0
23.0171 0 0
23.114 0 0
23.114 0 0
23.2109 0 0
23.2109 0 0
23.3079 0 0
23.3079 0 0
23.4048 0 0
23.4048 0 0
23.5017 0 0
23.5017 0 0
23.5986 0 0
23.5986 0 0
23.6956 0 0
23.6956 0 0
23.7925 0 0
23.7925 0 0
23.8894 0 0
23.8894 0 0
23.9863 0 0
23.9863 0 0
24.0833 0 0
24.0833 0 0
24.1802 0 0
24.1802 0 0
24.2771 0 0
24.2771 0 0
24.374 0 0
24.374 0 0
24.4709 0 0
24.4709 0 0
24.5679 0 0
24.5679 0 0
24.6648 0 0
24.6648 0 0
24.7617 0 0
24.7617 0 0
24.8586 0 0
24.8586 0 0
24.9556 0 0
24.9556 0 0
25.0525 0 0
25.0525 0 0
25.1494 0 0
25.1494 0 0
25.2463 0 0
25.2463 0 0
25.3433 0 0
25.3433 0 0
25.4402 0 0
25.4402 0 0
25.5371 0 0
25.5371 0 0
25.634 0 0
25.634 0 0
25.731 0 0
25.731 0 0
25.8279 0 0
25.8279 0 0
25.9248 0 0
25.9248 0 0
26.0217 0 0
26.0217 0 0
26.1187 0 0
26.1187 0 0
26.2156 0 0
26.2156 0 0
26.3125 0 0
26.3125 0 0
26.4094 0 0
26.4094 0 0
26.5063 0 0
26.5063 0 0
26.6033 0 0
26.6033 0 0
26.7002 0 0
26.7002 0 0
26.7971 0 0
26.7971 0 0
26.894 0 0
26.894 0 0
26.991 0 0
26.991 0 0
27.0879 0 0
27.0879 0 0
27.1848 0 0
27.1848 0 0
27.2817 0 0
27.2817 0 0
27.3787 0 0
27.3787 0 0
27.4756 0 0
27.4756 0 0
27.5725 0 0
27.5725 0 0
27.6694 0 0
27.6694 0 0
27.7664 0 0
27.7664 0 0
27.8633 0 0
27.8633 0 0
27.9602 0 0
27.9602 0 0
28.0571 0 0
28.0571 0 0
28.1541 0 0
28.1541 0 0
28.251 0 0
28.251 0 0
28.3479 0 0
28.3479 0 0
28.4448 0 0
28.4448 0 0
28.5417 0 0
28.5417 0 0
28.6387 0 0
28.6387 0 0
28.7356 0 0
28.7356 0 0
28.8325 0 0
28.8325 0 0
28.9294 0 0
28.9294 0 0
29.0264 0 0
29.0264 0 0
29.1233 0 0
29.1233 0 0
29.2202 0 0
29.2202 0 0
29.3171 0 0
29.3171 0 0
29.4141 0 0
29.4141 0 0
29.511 0 0
29.511 0 0
29.6079 0 0
29.6079 0 0
29.7048 0 0
29.7048 0 0
29.8018 0 0
29.8018 0 0
29.8987 0 0
29.8987 0 0
29.9956 0 0
29.9956 0 0
30.0925 0 0
30.0925 0 0
30.1895 0 0
30.1895 0 0
30.2864 0 0
30.2864 0 0
30.3833 0 0
30.3833 0 0
30.4802 0 0
30.4802 0 0
30.5771 0 0
30.5771 0 0
30.6741 0 0
30.6741 0 0
30.771 0 0
30.771 0 0
30.8679 0 0
30.8679 0 0
30.9648 0 0
30.9648 0 0
31.0618 0 0
31.0618 0 0
31.1587 0 0
31.1587 0 0
31.2556 0 0
31.2556 0 0
31.3525 0 0
31.3525 0 0
31.4495 0 0
31.4495 0 0
31.5464 0 0
31.5464 0 0
31.6433 0 0
31.6433 0 0
31.7402 0 0
31.7402 0 0
31.8372 0 0
31.8372 0 0
31.9341 0 0
31.9341 0 0
32.031 0 0
32.031 0 0
32.1279 0 0
32.1279 0 0
32.2249 0 0
32.2249 0 0
32.3218 0 0
32.3218 0 0
32.4187 0 0
32.4187 0 0
32.5156 0 0
32.5156 0 0
32.6125 0 0
32.6125 0 0
32.7095 0 0
32.7095 0 0
32.8064 0 0
32.8064 0 0
32.9033 0 0
32.9033 0 0
33.0002 0 0
33.0002 0 0
33.0972 0 0
33.0972 0 0
33.1941 0 0
33.1941 0 0
33.291 0 0
33.291 0 0
33.3879 0 0
33.3879 0 0
33.4849 0 0
33.4849 0 0
33.5818 0 0
33.5818 0 0
33.6787 0 0
33.6787 0 0
33.7756 0 0
33.7756 0 0
33.8726 0 0
33.8726 0 0
33.9695 0 0
33.9695 0 0
34.0664 0 0
34.0664 0 0
34.1633 0 0
34.1633 0 0
34.2603 0 0
34.2603 0 0
34.3572 0 0
34.3572 0 0
34.4541 0 0
34.4541 0 0
34.551 0 0
34.551 0 0
34.6479 0 0
34.6479 0 0
34.7449 0 0
34.7449 0 0
34.8418 0 0
34.8418 0 0
34.9387 0 0
34.9387 0 0
35.0356 0 0
35.0356 0 0
35.1326 0 0
35.1326 0 0
35.2295 0 0
35.2295 0 0
35.3264 0 0
35.3264 0 0
35.4233 0 0
35.4233 0 0
35.5203 0 0
35.5203 0 0
35.6172 0 0
35.6172 0 0
35.7141 0 0
35.7141 0 0
35.811 0 0
35.811 0 0
35.908 0 0
35.908 0 0
36.0049 0 0
36.0049 0 0
36.1018 0 0
36.1018 0 0
36.1987 0 0
36.1987 0 0
36.2957 0 0
36.2957 0 0
36.3926 0 0
36.3926 0 0
36.4895 0 0
36.4895 0 0
36.5864 0 0
36.5864 0 0
36.6833 0 0
36.6833 0 0
36.7803 0 0
36.7803 0 0
36.8772 0 0
36.8772 0 0
36.9741 0 0
36.9741 0 0
37.071 0 0
37.071 0 0
37.168 0 0
37.168 0 0
37.2649 0 0
37.2649 0 0
37.3618 0 0
37.3618 0 0
37.4587 0 0
37.4587 0 0
37.5557 0 0
37.5557 0 0
37.6526 0 0
37.6526 0 0
37.7495 0 0
37.7495 0 0
37.8464 0 0
37.8464 0 0
37.9434 0 0
37.9434 0 0
38.0403 0 0
38.0403 0 0
38.1372 0 0
38.1372 0 0
38.2341 0 0
38.2341 0 0
38.3311 0 0
38.3311 0 0
38.428 0 0
38.428 0 0
38.5249 0 0
38.5249 0 0
38.6218 0 0
38.6218 0 0
38.7188 0 0
38.7188 0 0
38.8157 0 0
38.8157 0 0
38.9126 0 0
38.9126 0 0
39.0095 0 0
39.0095 0 0
39.1064 0 0
39.1064 0 0
39.2034 0 0
39.2034 0 0
39.3003 0 0
39.3003 0 0
39.3972 0 0
39.3972 0 0
39.4941 0 0
39.4941 0 0
39.5911 0 0
39.5911 0 0
39.688 0 0
39.688 0 0
39.7849 0 0
39.7849 0 0
39.8818 0 0
39.8818 0 0
39.9788 0 0
39.9788 0 0
40.0757 0 0
40.0757 0 0
40.1726 0 0
40.1726 0 0
40.2695 0 0
40.2695 0 0
40.3665 0 0
40.3665 0 0
40.4634 0 0
40.4634 0 0
40.5603 0 0
40.5603 0 0
40.6572 0 0
40.6572 0 0
40.7542 0 0
40.7542 0 0
40.8511 0 0
40.8511 0 0
40.948 0 0
40.948 0 0
41.0449 0 0
41.0449 0 0
41.1418 0 0
41.1418 0 0
41.2388 0 0
41.2388 0 0
41.3357 0 0
41.3357 0 0
41.4326 0 0
41.4326 0 0
41.5295 0 0
41.5295 0 0
[...]
POINT_DATA 4096
SCALARS solution_0 double 1
LOOKUP_TABLE default
6.22473e+13 6.09575e+13 6.09575e+13 5.98701e+13 5.98701e+13 5.89439e+13 5.89439e+13 5.81476e+13 5.81476e+13 5.74566e+13 5.74566e+13 5.68519e+13 5.68519e+13 5.63181e+13 5.63181e+13 5.58432e+13 5.58432e+13 5.54171e+13 5.54171e+13 5.50319e+13 5.50319e+13 5.46809e+13 5.46809e+13 5.43588e+13 5.43588e+13 5.40608e+13 5.40608e+13 5.37834e+13 5.37834e+13 5.35232e+13 5.35232e+13 5.32777e+13 5.32777e+13 5.30445e+13 5.30445e+13 5.28216e+13 5.28216e+13 5.26076e+13 5.26076e+13 5.24009e+13 5.24009e+13 5.22004e+13 5.22004e+13 5.2005e+13 5.2005e+13 5.18139e+13 5.18139e+13 5.16262e+13 5.16262e+13 5.14414e+13 5.14414e+13 5.12589e+13 5.12589e+13 5.10781e+13 5.10781e+13 5.08988e+13 5.08988e+13 5.07204e+13 5.07204e+13 5.05427e+13 5.05427e+13 5.03655e+13 5.03655e+13 5.01885e+13 5.01885e+13 5.00115e+13 5.00115e+13 4.98344e+13 4.98344e+13 4.9657e+13 4.9657e+13 4.94791e+13 4.94791e+13 4.93008e+13 4.93008e+13 4.91219e+13 4.91219e+13 4.89423e+13 4.89423e+13 4.87621e+13 4.87621e+13 4.8581e+13 4.8581e+13 4.83993e+13 4.83993e+13 4.82167e+13 4.82167e+13 4.80333e+13 4.80333e+13 4.78491e+13 4.78491e+13 4.76641e+13 4.76641e+13 4.74782e+13 4.74782e+13 4.72916e+13 4.72916e+13 4.71042e+13 4.71042e+13 4.69159e+13 4.69159e+13 4.67269e+13 4.67269e+13 4.65372e+13 4.65372e+13 4.63468e+13 4.63468e+13 4.61556e+13 4.61556e+13 4.59638e+13 4.59638e+13 4.57714e+13 4.57714e+13 4.55783e+13 4.55783e+13 4.53846e+13 4.53846e+13 4.51904e+13 4.51904e+13 4.49957e+13 4.49957e+13 4.48005e+13 4.48005e+13 4.46048e+13 4.46048e+13 4.44087e+13 4.44087e+13 4.42122e+13 4.42122e+13 4.40153e+13 4.40153e+13 4.38181e+13 4.38181e+13 4.36206e+13 4.36206e+13 4.34229e+13 4.34229e+13 4.32249e+13 4.32249e+13 4.30266e+13 4.30266e+13 4.28282e+13 4.28282e+13 4.26297e+13 4.26297e+13 4.2431e+13 4.2431e+13 4.22322e+13 4.22322e+13 4.20334e+13 4.20334e+13 4.18346e+13 4.18346e+13 4.16357e+13 4.16357e+13 4.14368e+13 4.14368e+13 4.1238e+13 4.1238e+13 4.10393e+13 4.10393e+13 4.08406e+13 4.08406e+13 4.06421e+13 4.06421e+13 4.04437e+13 4.04437e+13 4.02455e+13 4.02455e+13 4.00475e+13 4.00475e+13 3.98497e+13 3.98497e+13 3.96521e+13 3.96521e+13 3.94547e+13 3.94547e+13 3.92577e+13 3.92577e+13 3.90609e+13 3.90609e+13 3.88645e+13 3.88645e+13 3.86684e+13 3.86684e+13 3.84726e+13 3.84726e+13 3.82773e+13 3.82773e+13 3.80823e+13 3.80823e+13 3.78877e+13 3.78877e+13 3.76935e+13 3.76935e+13 3.74998e+13 3.74998e+13 3.73065e+13 3.73065e+13 3.71137e+13 3.71137e+13 3.69214e+13 3.69214e+13 3.67295e+13 3.67295e+13 3.65382e+13 3.65382e+13 3.63474e+13 3.63474e+13 3.61572e+13 3.61572e+13 3.59675e+13 3.59675e+13 3.57783e+13 3.57783e+13 3.55897e+13 3.55897e+13 3.54017e+13 3.54017e+13 3.52143e+13 3.52143e+13 3.50275e+13 3.50275e+13 3.48413e+13 3.48413e+13 3.46558e+13 3.46558e+13 3.44708e+13 3.44708e+13 3.42865e+13 3.42865e+13 3.41029e+13 3.41029e+13 3.39199e+13 3.39199e+13 3.37376e+13 3.37376e+13 3.35559e+13 3.35559e+13 3.3375e+13 3.3375e+13 3.31947e+13 3.31947e+13 3.30151e+13 3.30151e+13 3.28362e+13 3.28362e+13 3.2658e+13 3.2658e+13 3.24806e+13 3.24806e+13 3.23038e+13 3.23038e+13 3.21278e+13 3.21278e+13 3.19525e+13 3.19525e+13 3.17779e+13 3.17779e+13 3.16041e+13 3.16041e+13 3.1431e+13 3.1431e+13 3.12586e+13 3.12586e+13 3.1087e+13 3.1087e+13 3.09162e+13 3.09162e+13 3.07461e+13 3.07461e+13 3.05768e+13 3.05768e+13 3.04082e+13 3.04082e+13 3.02404e+13 3.02404e+13 3.00733e+13 3.00733e+13 2.9907e+13 2.9907e+13 2.97415e+13 2.97415e+13 2.95768e+13 2.95768e+13 2.94128e+13 2.94128e+13 2.92497e+13 2.92497e+13 2.90872e+13 2.90872e+13 2.89256e+13 2.89256e+13 2.87648e+13 2.87648e+13 2.86047e+13 2.86047e+13 2.84454e+13 2.84454e+13 2.82869e+13 2.82869e+13 2.81292e+13 2.81292e+13 2.79722e+13 2.79722e+13 2.78161e+13 2.78161e+13 2.76607e+13 2.76607e+13 2.75061e+13 2.75061e+13 2.73523e+13 2.73523e+13 2.71993e+13 2.71993e+13 2.7047e+13 2.7047e+13 2.68956e+13 2.68956e+13 2.67449e+13 2.67449e+13 2.6595e+13 2.6595e+13 2.64459e+13 2.64459e+13 2.62976e+13 2.62976e+13 2.615e+13 2.615e+13 2.60032e+13 2.60032e+13 2.58572e+13 2.58572e+13 2.5712e+13 2.5712e+13 2.55675e+13 2.55675e+13 2.54238e+13 2.54238e+13 2.52809e+13 2.52809e+13 2.51388e+13 2.51388e+13 2.49974e+13 2.49974e+13 2.48568e+13 2.48568e+13 2.47169e+13 2.47169e+13 2.45778e+13 2.45778e+13 2.44395e+13 2.44395e+13 2.43019e+13 2.43019e+13 2.41651e+13 2.41651e+13 2.40291e+13 2.40291e+13 2.38937e+13 2.38937e+13 2.37592e+13 2.37592e+13 2.36254e+13 2.36254e+13 2.34923e+13 2.34923e+13 2.336e+13 2.336e+13 2.32284e+13 2.32284e+13 2.30975e+13 2.30975e+13 2.29674e+13 2.29674e+13 2.28381e+13 2.28381e+13 2.27094e+13 2.27094e+13 2.25815e+13 2.25815e+13 2.24543e+13 2.24543e+13 2.23278e+13 2.23278e+13 2.22021e+13 2.22021e+13 2.2077e+13 2.2077e+13 2.19527e+13 2.19527e+13 2.18291e+13 2.18291e+13 2.17062e+13 2.17062e+13 2.1584e+13 2.1584e+13 2.14625e+13 2.14625e+13 2.13417e+13 2.13417e+13 2.12216e+13 2.12216e+13 2.11022e+13 2.11022e+13 2.09834e+13 2.09834e+13 2.08654e+13 2.08654e+13 2.07481e+13 2.07481e+13 2.06314e+13 2.06314e+13 2.05154e+13 2.05154e+13 2.04001e+13 2.04001e+13 2.02855e+13 2.02855e+13 2.01715e+13 2.01715e+13 2.00582e+13 2.00582e+13 1.99455e+13 1.99455e+13 1.98336e+13 1.98336e+13 1.97222e+13 1.97222e+13 1.96116e+13 1.96116e+13 1.95015e+13 1.95015e+13 1.93922e+13 1.93922e+13 1.92834e+13 1.92834e+13 1.91753e+13 1.91753e+13 1.90679e+13 1.90679e+13 1.89611e+13 1.89611e+13 1.88549e+13 1.88549e+13 1.87493e+13 1.87493e+13 1.86444e+13 1.86444e+13 1.85401e+13 1.85401e+13 1.84364e+13 1.84364e+13 1.83333e+13 1.83333e+13 1.82308e+13 1.82308e+13 1.81289e+13 1.81289e+13 1.80277e+13 1.80277e+13 1.7927e+13 1.7927e+13 1.78269e+13 1.78269e+13 1.77275e+13 1.77275e+13 1.76286e+13 1.76286e+13 1.75303e+13 1.75303e+13 1.74326e+13 1.74326e+13 1.73355e+13 1.73355e+13 1.72389e+13 1.72389e+13 1.7143e+13 1.7143e+13 1.70476e+13 1.70476e+13 1.69528e+13 1.69528e+13 1.68585e+13 1.68585e+13 1.67648e+13 1.67648e+13 1.66717e+13 1.66717e+13 1.65791e+13 1.65791e+13 1.64871e+13 1.64871e+13 1.63956e+13 1.63956e+13 1.63047e+13 1.63047e+13 1.62143e+13 1.62143e+13 1.61244e+13 1.61244e+13 1.60351e+13 1.60351e+13 1.59463e+13 1.59463e+13 1.58581e+13 1.58581e+13 1.57704e+13 1.57704e+13 1.56832e+13 1.56832e+13 1.55965e+13 1.55965e+13 1.55104e+13 1.55104e+13 1.54247e+13 1.54247e+13 1.53396e+13 1.53396e+13 1.5255e+13 1.5255e+13 1.51709e+13 1.51709e+13 1.50873e+13 1.50873e+13 1.50042e+13 1.50042e+13 1.49216e+13 1.49216e+13 1.48395e+13 1.48395e+13 1.47579e+13 1.47579e+13 1.46767e+13 1.46767e+13 1.45961e+13 1.45961e+13 1.45159e+13 1.45159e+13 1.44362e+13 1.44362e+13 1.4357e+13 1.4357e+13 1.42783e+13 1.42783e+13 1.42e+13 1.42e+13 1.41222e+13 1.41222e+13 1.40449e+13 1.40449e+13 1.3968e+13 1.3968e+13 1.38916e+13 1.38916e+13 1.38156e+13 1.38156e+13 1.37401e+13 1.37401e+13 1.36651e+13 1.36651e+13 1.35905e+13 1.35905e+13 1.35163e+13 1.35163e+13 1.34426e+13 1.34426e+13 1.33693e+13 1.33693e+13 1.32965e+13 1.32965e+13 1.32241e+13 1.32241e+13 1.31521e+13 1.31521e+13 1.30805e+13 1.30805e+13 1.30094e+13 1.30094e+13 1.29387e+13 1.29387e+13 1.28684e+13 1.28684e+13 1.27985e+13 1.27985e+13 1.27291e+13 1.27291e+13 1.26601e+13 1.26601e+13 1.25914e+13 1.25914e+13 1.25232e+13 1.25232e+13 1.24554e+13 1.24554e+13 1.2388e+13 1.2388e+13 1.2321e+13 1.2321e+13 1.22543e+13 1.22543e+13 1.21881e+13 1.21881e+13 1.21223e+13 1.21223e+13 1.20568e+13 1.20568e+13 1.19918e+13 1.19918e+13 1.19271e+13 1.19271e+13 1.18628e+13 1.18628e+13 1.17989e+13 1.17989e+13 1.17353e+13 1.17353e+13 1.16722e+13 1.16722e+13 1.16094e+13 1.16094e+13 1.1547e+13 1.1547e+13 1.14849e+13 1.14849e+13 1.14232e+13 1.14232e+13 1.13619e+13 1.13619e+13 1.13009e+13 1.13009e+13 1.12403e+13 1.12403e+13 1.118e+13 1.118e+13 1.11201e+13 1.11201e+13 1.10606e+13 1.10606e+13 1.10014e+13 1.10014e+13 1.09425e+13 1.09425e+13 1.0884e+13 1.0884e+13 1.08258e+13 1.08258e+13 1.0768e+13 1.0768e+13 1.07105e+13 1.07105e+13 1.06534e+13 1.06534e+13 1.05965e+13 1.05965e+13 1.054e+13 1.054e+13 1.04839e+13 1.04839e+13 1.0428e+13 1.0428e+13 1.03725e+13 1.03725e+13 1.03173e+13 1.03173e+13 1.02624e+13 1.02624e+13 1.02079e+13 1.02079e+13 1.01536e+13 1.01536e+13 1.00997e+13 1.00997e+13 1.00461e+13 1.00461e+13 9.99276e+12 9.99276e+12 9.93976e+12 9.93976e+12 9.88706e+12 9.88706e+12 9.83467e+12 9.83467e+12 9.78258e+12 9.78258e+12 9.73079e+12 9.73079e+12 9.67929e+12 9.67929e+12 9.6281e+12 9.6281e+12 9.57719e+12 9.57719e+12 9.52658e+12 9.52658e+12 9.47626e+12 9.47626e+12 9.42622e+12 9.42622e+12 9.37648e+12 9.37648e+12 9.32701e+12 9.32701e+12 9.27783e+12 9.27783e+12 9.22893e+12 9.22893e+12 9.18031e+12 9.18031e+12 9.13196e+12 9.13196e+12 9.08389e+12 9.08389e+12 9.03609e+12 9.03609e+12 8.98857e+12 8.98857e+12 8.94131e+12 8.94131e+12 8.89432e+12 8.89432e+12 8.8476e+12 8.8476e+12 8.80114e+12 8.80114e+12 8.75495e+12 8.75495e+12 8.70902e+12 8.70902e+12 8.66334e+12 8.66334e+12 8.61792e+12 8.61792e+12 8.57276e+12 8.57276e+12 8.52785e+12 8.52785e+12 8.4832e+12 8.4832e+12 8.4388e+12 8.4388e+12 8.39464e+12 8.39464e+12 8.35073e+12 8.35073e+12 8.30707e+12 8.30707e+12 8.26366e+12 8.26366e+12 8.22048e+12 8.22048e+12 8.17755e+12 8.17755e+12 8.13486e+12 8.13486e+12 8.0924e+12 8.0924e+12 8.05018e+12 8.05018e+12 8.0082e+12 8.0082e+12 7.96645e+12 7.96645e+12 7.92493e+12 7.92493e+12 7.88364e+12 7.88364e+12 7.84258e+12 7.84258e+12 7.80175e+12 7.80175e+12 7.76114e+12 7.76114e+12 7.72076e+12 7.72076e+12 7.6806e+12 7.6806e+12 7.64066e+12 7.64066e+12 7.60095e+12 7.60095e+12 7.56145e+12 7.56145e+12 7.52217e+12 7.52217e+12 7.4831e+12 7.4831e+12 7.44425e+12 7.44425e+12 7.40561e+12 7.40561e+12 7.36719e+12 7.36719e+12 7.32897e+12 7.32897e+12 7.29096e+12 7.29096e+12 7.25316e+12 7.25316e+12 7.21557e+12 7.21557e+12 7.17818e+12 7.17818e+12 7.14099e+12 7.14099e+12 7.10401e+12 7.10401e+12 7.06723e+12 7.06723e+12 7.03065e+12 7.03065e+12 6.99426e+12 6.99426e+12 6.95808e+12 6.95808e+12 6.92208e+12 6.92208e+12 6.88629e+12 6.88629e+12 6.85068e+12 6.85068e+12 6.81527e+12 6.81527e+12 6.78005e+12 6.78005e+12 6.74502e+12 6.74502e+12 6.71017e+12 6.71017e+12 6.67552e+12 6.67552e+12 6.64105e+12 6.64105e+12 6.60676e+12 6.60676e+12 6.57266e+12 6.57266e+12 6.53874e+12 6.53874e+12 6.505e+12 6.505e+12 6.47145e+12 6.47145e+12 6.43807e+12 6.43807e+12 6.40486e+12 6.40486e+12 6.37184e+12 6.37184e+12 6.33899e+12 6.33899e+12 6.30631e+12 6.30631e+12 6.27381e+12 6.27381e+12 6.24148e+12 6.24148e+12 6.20932e+12 6.20932e+12 6.17733e+12 6.17733e+12 6.14551e+12 6.14551e+12 6.11386e+12 6.11386e+12 6.08237e+12 6.08237e+12 6.05105e+12 6.05105e+12 6.0199e+12 6.0199e+12 5.98891e+12 5.98891e+12 5.95808e+12 5.95808e+12 5.92741e+12 5.92741e+12 5.8969e+12 5.8969e+12 5.86655e+12 5.86655e+12 5.83636e+12 5.83636e+12 5.80633e+12 5.80633e+12 5.77645e+12 5.77645e+12 5.74673e+12 5.74673e+12 5.71717e+12 5.71717e+12 5.68776e+12 5.68776e+12 5.6585e+12 5.6585e+12 5.62939e+12 5.62939e+12 5.60043e+12 5.60043e+12 5.57162e+12 5.57162e+12 5.54296e+12 5.54296e+12 5.51445e+12 5.51445e+12 5.48609e+12 5.48609e+12 5.45787e+12 5.45787e+12 5.42979e+12 5.42979e+12 5.40187e+12 5.40187e+12 5.37408e+12 5.37408e+12 5.34643e+12 5.34643e+12 5.31893e+12 5.31893e+12 5.29157e+12 5.29157e+12 5.26435e+12 5.26435e+12 5.23727e+12 5.23727e+12 5.21032e+12 5.21032e+12 5.18351e+12 5.18351e+12 5.15684e+12 5.15684e+12 5.1303e+12 5.1303e+12 5.1039e+12 5.1039e+12 5.07763e+12 5.07763e+12 5.0515e+12 5.0515e+12 5.02549e+12 5.02549e+12 4.99962e+12 4.99962e+12 4.97388e+12 4.97388e+12 4.94827e+12 4.94827e+12 4.92279e+12 4.92279e+12 4.89743e+12 4.89743e+12 4.8722e+12 4.8722e+12 4.8471e+12 4.8471e+12 4.82213e+12 4.82213e+12 4.79728e+12 4.79728e+12 4.77255e+12 4.77255e+12 4.74795e+12 4.74795e+12 4.72347e+12 4.72347e+12 4.69911e+12 4.69911e+12 4.67487e+12 4.67487e+12 4.65076e+12 4.65076e+12 4.62676e+12 4.62676e+12 4.60288e+12 4.60288e+12 4.57912e+12 4.57912e+12 4.55548e+12 4.55548e+12 4.53195e+12 4.53195e+12 4.50854e+12 4.50854e+12 4.48525e+12 4.48525e+12 4.46207e+12 4.46207e+12 4.43901e+12 4.43901e+12 4.41605e+12 4.41605e+12 4.39322e+12 4.39322e+12 4.37049e+12 4.37049e+12 4.34787e+12 4.34787e+12 4.32537e+12 4.32537e+12 4.30297e+12 4.30297e+12 4.28069e+12 4.28069e+12 4.25851e+12 4.25851e+12 4.23644e+12 4.23644e+12 4.21448e+12 4.21448e+12 4.19262e+12 4.19262e+12 4.17087e+12 4.17087e+12 4.14923e+12 4.14923e+12 4.12769e+12 4.12769e+12 4.10625e+12 4.10625e+12 4.08492e+12 4.08492e+12 4.06369e+12 4.06369e+12 4.04257e+12 4.04257e+12 4.02154e+12 4.02154e+12 4.00062e+12 4.00062e+12 3.97979e+12 3.97979e+12 3.95907e+12 3.95907e+12 3.93845e+12 3.93845e+12 3.91792e+12 3.91792e+12 3.8975e+12 3.8975e+12 3.87717e+12 3.87717e+12 3.85693e+12 3.85693e+12 3.8368e+12 3.8368e+12 3.81676e+12 3.81676e+12 3.79681e+12 3.79681e+12 3.77696e+12 3.77696e+12 3.75721e+12 3.75721e+12 3.73754e+12 3.73754e+12 3.71797e+12 3.71797e+12 3.6985e+12 3.6985e+12 3.67911e+12 3.67911e+12 3.65982e+12 3.65982e+12 3.64062e+12 3.64062e+12 3.6215e+12 3.6215e+12 3.60248e+12 3.60248e+12 3.58355e+12 3.58355e+12 3.5647e+12 3.5647e+12 3.54595e+12 3.54595e+12 3.52728e+12 3.52728e+12 3.5087e+12 3.5087e+12 3.4902e+12 3.4902e+12 3.4718e+12 3.4718e+12 3.45347e+12 3.45347e+12 3.43524e+12 3.43524e+12 3.41708e+12 3.41708e+12 3.39902e+12 3.39902e+12 3.38103e+12 3.38103e+12 3.36313e+12 3.36313e+12 3.34531e+12 3.34531e+12 3.32758e+12 3.32758e+12 3.30992e+12 3.30992e+12 3.29235e+12 3.29235e+12 3.27486e+12 3.27486e+12 3.25745e+12 3.25745e+12 3.24012e+12 3.24012e+12 3.22287e+12 3.22287e+12 3.2057e+12 3.2057e+12 3.1886e+12 3.1886e+12 3.17159e+12 3.17159e+12 3.15465e+12 3.15465e+12 3.13779e+12 3.13779e+12 3.12101e+12 3.12101e+12 3.1043e+12 3.1043e+12 3.08767e+12 3.08767e+12 3.07112e+12 3.07112e+12 3.05464e+12 3.05464e+12 3.03823e+12 3.03823e+12 3.0219e+12 3.0219e+12 3.00564e+12 3.00564e+12 2.98946e+12 2.98946e+12 2.97335e+12 2.97335e+12 2.95731e+12 2.95731e+12 2.94135e+12 2.94135e+12 2.92545e+12 2.92545e+12 2.90963e+12 2.90963e+12 2.89388e+12 2.89388e+12 2.8782e+12 2.8782e+12 2.86259e+12 2.86259e+12 2.84705e+12 2.84705e+12 2.83158e+12 2.83158e+12 2.81618e+12 2.81618e+12 2.80085e+12 2.80085e+12 2.78558e+12 2.78558e+12 2.77038e+12 2.77038e+12 2.75526e+12 2.75526e+12 2.74019e+12 2.74019e+12 2.7252e+12 2.7252e+12 2.71027e+12 2.71027e+12 2.69541e+12 2.69541e+12 2.68061e+12 2.68061e+12 2.66588e+12 2.66588e+12 2.65122e+12 2.65122e+12 2.63662e+12 2.63662e+12 2.62208e+12 2.62208e+12 2.60761e+12 2.60761e+12 2.5932e+12 2.5932e+12 2.57885e+12 2.57885e+12 2.56457e+12 2.56457e+12 2.55035e+12 2.55035e+12 2.53619e+12 2.53619e+12 2.52209e+12 2.52209e+12 2.50806e+12 2.50806e+12 2.49408e+12 2.49408e+12 2.48017e+12 2.48017e+12 2.46632e+12 2.46632e+12 2.45253e+12 2.45253e+12 2.43879e+12 2.43879e+12 2.42512e+12 2.42512e+12 2.41151e+12 2.41151e+12 2.39796e+12 2.39796e+12 2.38446e+12 2.38446e+12 2.37102e+12 2.37102e+12 2.35764e+12 2.35764e+12 2.34432e+12 2.34432e+12 2.33106e+12 2.33106e+12 2.31785e+12 2.31785e+12 2.3047e+12 2.3047e+12 2.29161e+12 2.29161e+12 2.27857e+12 2.27857e+12 2.26559e+12 2.26559e+12 2.25266e+12 2.25266e+12 2.23979e+12 2.23979e+12 2.22698e+12 2.22698e+12 2.21421e+12 2.21421e+12 2.20151e+12 2.20151e+12 2.18885e+12 2.18885e+12 2.17626e+12 2.17626e+12 2.16371e+12 2.16371e+12 2.15122e+12 2.15122e+12 2.13878e+12 2.13878e+12 2.12639e+12 2.12639e+12 2.11406e+12 2.11406e+12 2.10178e+12 2.10178e+12 2.08955e+12 2.08955e+12 2.07737e+12 2.07737e+12 2.06524e+12 2.06524e+12 2.05317e+12 2.05317e+12 2.04114e+12 2.04114e+12 2.02917e+12 2.02917e+12 2.01725e+12 2.01725e+12 2.00537e+12 2.00537e+12 1.99355e+12 1.99355e+12 1.98177e+12 1.98177e+12 1.97005e+12 1.97005e+12 1.95837e+12 1.95837e+12 1.94674e+12 1.94674e+12 1.93516e+12 1.93516e+12 1.92363e+12 1.92363e+12 1.91215e+12 1.91215e+12 1.90071e+12 1.90071e+12 1.88933e+12 1.88933e+12 1.87798e+12 1.87798e+12 1.86669e+12 1.86669e+12 1.85544e+12 1.85544e+12 1.84424e+12 1.84424e+12 1.83309e+12 1.83309e+12 1.82198e+12 1.82198e+12 1.81092e+12 1.81092e+12 1.7999e+12 1.7999e+12 1.78893e+12 1.78893e+12 1.77801e+12 1.77801e+12 1.76712e+12 1.76712e+12 1.75629e+12 1.75629e+12 1.7455e+12 1.7455e+12 1.73475e+12 1.73475e+12 1.72404e+12 1.72404e+12 1.71338e+12 1.71338e+12 1.70277e+12 1.70277e+12 1.69219e+12 1.69219e+12 1.68166e+12 1.68166e+12 1.67117e+12 1.67117e+12 1.66073e+12 1.66073e+12 1.65033e+12 1.65033e+12 1.63997e+12 1.63997e+12 1.62965e+12 1.62965e+12 1.61937e+12 1.61937e+12 1.60914e+12 1.60914e+12 1.59895e+12 1.59895e+12 1.58879e+12 1.58879e+12 1.57868e+12 1.57868e+12 1.56861e+12 1.56861e+12 1.55858e+12 1.55858e+12 1.54859e+12 1.54859e+12 1.53864e+12 1.53864e+12 1.52873e+12 1.52873e+12 1.51887e+12 1.51887e+12 1.50904e+12 1.50904e+12 1.49925e+12 1.49925e+12 1.48949e+12 1.48949e+12 1.47978e+12 1.47978e+12 1.47011e+12 1.47011e+12 1.46047e+12 1.46047e+12 1.45088e+12 1.45088e+12 1.44132e+12 1.44132e+12 1.4318e+12 1.4318e+12 1.42232e+12 1.42232e+12 1.41287e+12 1.41287e+12 1.40346e+12 1.40346e+12 1.3941e+12 1.3941e+12 1.38476e+12 1.38476e+12 1.37547e+12 1.37547e+12 1.36621e+12 1.36621e+12 1.35699e+12 1.35699e+12 1.3478e+12 1.3478e+12 1.33865e+12 1.33865e+12 1.32954e+12 1.32954e+12 1.32046e+12 1.32046e+12 1.31142e+12 1.31142e+12 1.30241e+12 1.30241e+12 1.29344e+12 1.29344e+12 1.2845e+12 1.2845e+12 1.2756e+12 1.2756e+12 1.26674e+12 1.26674e+12 1.2579e+12 1.2579e+12 1.24911e+12 1.24911e+12 1.24034e+12 1.24034e+12 1.23162e+12 1.23162e+12 1.22292e+12 1.22292e+12 1.21426e+12 1.21426e+12 1.20563e+12 1.20563e+12 1.19704e+12 1.19704e+12 1.18848e+12 1.18848e+12 1.17996e+12 1.17996e+12 1.17146e+12 1.17146e+12 1.163e+12 1.163e+12 1.15457e+12 1.15457e+12 1.14618e+12 1.14618e+12 1.13782e+12 1.13782e+12 1.12948e+12 1.12948e+12 1.12119e+12 1.12119e+12 1.11292e+12 1.11292e+12 1.10469e+12 1.10469e+12 1.09648e+12 1.09648e+12 1.08831e+12 1.08831e+12 1.08017e+12 1.08017e+12 1.07206e+12 1.07206e+12 1.06398e+12 1.06398e+12 1.05594e+12 1.05594e+12 1.04792e+12 1.04792e+12 1.03994e+12 1.03994e+12 1.03198e+12 1.03198e+12 1.02406e+12 1.02406e+12 1.01616e+12 1.01616e+12 1.0083e+12 1.0083e+12 1.00046e+12 1.00046e+12 9.9266e+11 9.9266e+11 9.84885e+11 9.84885e+11 9.7714e+11 9.7714e+11 9.69425e+11 9.69425e+11 9.61738e+11 9.61738e+11 9.54081e+11 9.54081e+11 9.46452e+11 9.46452e+11 9.38853e+11 9.38853e+11 9.31282e+11 9.31282e+11 9.2374e+11 9.2374e+11 9.16226e+11 9.16226e+11 9.08741e+11 9.08741e+11 9.01283e+11 9.01283e+11 8.93854e+11 8.93854e+11 8.86453e+11 8.86453e+11 8.7908e+11 8.7908e+11 8.71734e+11 8.71734e+11 8.64416e+11 8.64416e+11 8.57125e+11 8.57125e+11 8.49861e+11 8.49861e+11 8.42625e+11 8.42625e+11 8.35416e+11 8.35416e+11 8.28234e+11 8.28234e+11 8.21078e+11 8.21078e+11 8.13949e+11 8.13949e+11 8.06847e+11 8.06847e+11 7.99772e+11 7.99772e+11 7.92722e+11 7.92722e+11 7.85699e+11 7.85699e+11 7.78702e+11 7.78702e+11 7.71731e+11 7.71731e+11 7.64785e+11 7.64785e+11 7.57866e+11 7.57866e+11 7.50972e+11 7.50972e+11 7.44104e+11 7.44104e+11 7.37261e+11 7.37261e+11 7.30443e+11 7.30443e+11 7.2365e+11 7.2365e+11 7.16883e+11 7.16883e+11 7.1014e+11 7.1014e+11 7.03423e+11 7.03423e+11 6.9673e+11 6.9673e+11 6.90061e+11 6.90061e+11 6.83417e+11 6.83417e+11 6.76798e+11 6.76798e+11 6.70203e+11 6.70203e+11 6.63632e+11 6.63632e+11 6.57085e+11 6.57085e+11 6.50562e+11 6.50562e+11 6.44063e+11 6.44063e+11 6.37587e+11 6.37587e+11 6.31136e+11 6.31136e+11 6.24707e+11 6.24707e+11 6.18303e+11 6.18303e+11 6.11921e+11 6.11921e+11 6.05563e+11 6.05563e+11 5.99228e+11 5.99228e+11 5.92916e+11 5.92916e+11 5.86627e+11 5.86627e+11 5.80361e+11 5.80361e+11 5.74118e+11 5.74118e+11 5.67897e+11 5.67897e+11 5.61698e+11 5.61698e+11 5.55522e+11 5.55522e+11 5.49369e+11 5.49369e+11 5.43238e+11 5.43238e+11 5.37128e+11 5.37128e+11 5.31041e+11 5.31041e+11 5.24976e+11 5.24976e+11 5.18933e+11 5.18933e+11 5.12911e+11 5.12911e+11 5.06911e+11 5.06911e+11 5.00933e+11 5.00933e+11 4.94976e+11 4.94976e+11 4.89041e+11 4.89041e+11 4.83127e+11 4.83127e+11 4.77234e+11 4.77234e+11 4.71362e+11 4.71362e+11 4.65511e+11 4.65511e+11 4.59681e+11 4.59681e+11 4.53872e+11 4.53872e+11 4.48084e+11 4.48084e+11 4.42316e+11 4.42316e+11 4.36569e+11 4.36569e+11 4.30843e+11 4.30843e+11 4.25136e+11 4.25136e+11 4.19451e+11 4.19451e+11 4.13785e+11 4.13785e+11 4.08139e+11 4.08139e+11 4.02514e+11 4.02514e+11 3.96909e+11 3.96909e+11 3.91323e+11 3.91323e+11 3.85757e+11 3.85757e+11 3.80211e+11 3