# vtk DataFile Version 3.0
#This file was generated by the deal.II library on 2020/9/6 at 2:56:54
ASCII
DATASET UNSTRUCTURED_GRID

POINTS 4096 double
1.5 0 0
1.59692 0 0
1.59692 0 0
1.69385 0 0
1.69385 0 0
1.79077 0 0
1.79077 0 0
1.8877 0 0
1.8877 0 0
1.98462 0 0
1.98462 0 0
2.08154 0 0
2.08154 0 0
2.17847 0 0
2.17847 0 0
2.27539 0 0
2.27539 0 0
2.37231 0 0
2.37231 0 0
2.46924 0 0
2.46924 0 0
2.56616 0 0
2.56616 0 0
2.66309 0 0
2.66309 0 0
2.76001 0 0
2.76001 0 0
2.85693 0 0
2.85693 0 0
2.95386 0 0
2.95386 0 0
3.05078 0 0
3.05078 0 0
3.14771 0 0
3.14771 0 0
3.24463 0 0
3.24463 0 0
3.34155 0 0
3.34155 0 0
3.43848 0 0
3.43848 0 0
3.5354 0 0
3.5354 0 0
3.63232 0 0
3.63232 0 0
3.72925 0 0
3.72925 0 0
3.82617 0 0
3.82617 0 0
3.9231 0 0
3.9231 0 0
4.02002 0 0
4.02002 0 0
4.11694 0 0
4.11694 0 0
4.21387 0 0
4.21387 0 0
4.31079 0 0
4.31079 0 0
4.40771 0 0
4.40771 0 0
4.50464 0 0
4.50464 0 0
4.60156 0 0
4.60156 0 0
4.69849 0 0
4.69849 0 0
4.79541 0 0
4.79541 0 0
4.89233 0 0
4.89233 0 0
4.98926 0 0
4.98926 0 0
5.08618 0 0
5.08618 0 0
5.18311 0 0
5.18311 0 0
5.28003 0 0
5.28003 0 0
5.37695 0 0
5.37695 0 0
5.47388 0 0
5.47388 0 0
5.5708 0 0
5.5708 0 0
5.66772 0 0
5.66772 0 0
5.76465 0 0
5.76465 0 0
5.86157 0 0
5.86157 0 0
5.9585 0 0
5.9585 0 0
6.05542 0 0
6.05542 0 0
6.15234 0 0
6.15234 0 0
6.24927 0 0
6.24927 0 0
6.34619 0 0
6.34619 0 0
6.44312 0 0
6.44312 0 0
6.54004 0 0
6.54004 0 0
6.63696 0 0
6.63696 0 0
6.73389 0 0
6.73389 0 0
6.83081 0 0
6.83081 0 0
6.92773 0 0
6.92773 0 0
7.02466 0 0
7.02466 0 0
7.12158 0 0
7.12158 0 0
7.21851 0 0
7.21851 0 0
7.31543 0 0
7.31543 0 0
7.41235 0 0
7.41235 0 0
7.50928 0 0
7.50928 0 0
7.6062 0 0
7.6062 0 0
7.70312 0 0
7.70312 0 0
7.80005 0 0
7.80005 0 0
7.89697 0 0
7.89697 0 0
7.9939 0 0
7.9939 0 0
8.09082 0 0
8.09082 0 0
8.18774 0 0
8.18774 0 0
8.28467 0 0
8.28467 0 0
8.38159 0 0
8.38159 0 0
8.47852 0 0
8.47852 0 0
8.57544 0 0
8.57544 0 0
8.67236 0 0
8.67236 0 0
8.76929 0 0
8.76929 0 0
8.86621 0 0
8.86621 0 0
8.96313 0 0
8.96313 0 0
9.06006 0 0
9.06006 0 0
9.15698 0 0
9.15698 0 0
9.25391 0 0
9.25391 0 0
9.35083 0 0
9.35083 0 0
9.44775 0 0
9.44775 0 0
9.54468 0 0
9.54468 0 0
9.6416 0 0
9.6416 0 0
9.73853 0 0
9.73853 0 0
9.83545 0 0
9.83545 0 0
9.93237 0 0
9.93237 0 0
10.0293 0 0
10.0293 0 0
10.1262 0 0
10.1262 0 0
10.2231 0 0
10.2231 0 0
10.3201 0 0
10.3201 0 0
10.417 0 0
10.417 0 0
10.5139 0 0
10.5139 0 0
10.6108 0 0
10.6108 0 0
10.7078 0 0
10.7078 0 0
10.8047 0 0
10.8047 0 0
10.9016 0 0
10.9016 0 0
10.9985 0 0
10.9985 0 0
11.0955 0 0
11.0955 0 0
11.1924 0 0
11.1924 0 0
11.2893 0 0
11.2893 0 0
11.3862 0 0
11.3862 0 0
11.4832 0 0
11.4832 0 0
11.5801 0 0
11.5801 0 0
11.677 0 0
11.677 0 0
11.7739 0 0
11.7739 0 0
11.8708 0 0
11.8708 0 0
11.9678 0 0
11.9678 0 0
12.0647 0 0
12.0647 0 0
12.1616 0 0
12.1616 0 0
12.2585 0 0
12.2585 0 0
12.3555 0 0
12.3555 0 0
12.4524 0 0
12.4524 0 0
12.5493 0 0
12.5493 0 0
12.6462 0 0
12.6462 0 0
12.7432 0 0
12.7432 0 0
12.8401 0 0
12.8401 0 0
12.937 0 0
12.937 0 0
13.0339 0 0
13.0339 0 0
13.1309 0 0
13.1309 0 0
13.2278 0 0
13.2278 0 0
13.3247 0 0
13.3247 0 0
13.4216 0 0
13.4216 0 0
13.5186 0 0
13.5186 0 0
13.6155 0 0
13.6155 0 0
13.7124 0 0
13.7124 0 0
13.8093 0 0
13.8093 0 0
13.9062 0 0
13.9062 0 0
14.0032 0 0
14.0032 0 0
14.1001 0 0
14.1001 0 0
14.197 0 0
14.197 0 0
14.2939 0 0
14.2939 0 0
14.3909 0 0
14.3909 0 0
14.4878 0 0
14.4878 0 0
14.5847 0 0
14.5847 0 0
14.6816 0 0
14.6816 0 0
14.7786 0 0
14.7786 0 0
14.8755 0 0
14.8755 0 0
14.9724 0 0
14.9724 0 0
15.0693 0 0
15.0693 0 0
15.1663 0 0
15.1663 0 0
15.2632 0 0
15.2632 0 0
15.3601 0 0
15.3601 0 0
15.457 0 0
15.457 0 0
15.554 0 0
15.554 0 0
15.6509 0 0
15.6509 0 0
15.7478 0 0
15.7478 0 0
15.8447 0 0
15.8447 0 0
15.9417 0 0
15.9417 0 0
16.0386 0 0
16.0386 0 0
16.1355 0 0
16.1355 0 0
16.2324 0 0
16.2324 0 0
16.3293 0 0
16.3293 0 0
16.4263 0 0
16.4263 0 0
16.5232 0 0
16.5232 0 0
16.6201 0 0
16.6201 0 0
16.717 0 0
16.717 0 0
16.814 0 0
16.814 0 0
16.9109 0 0
16.9109 0 0
17.0078 0 0
17.0078 0 0
17.1047 0 0
17.1047 0 0
17.2017 0 0
17.2017 0 0
17.2986 0 0
17.2986 0 0
17.3955 0 0
17.3955 0 0
17.4924 0 0
17.4924 0 0
17.5894 0 0
17.5894 0 0
17.6863 0 0
17.6863 0 0
17.7832 0 0
17.7832 0 0
17.8801 0 0
17.8801 0 0
17.9771 0 0
17.9771 0 0
18.074 0 0
18.074 0 0
18.1709 0 0
18.1709 0 0
18.2678 0 0
18.2678 0 0
18.3647 0 0
18.3647 0 0
18.4617 0 0
18.4617 0 0
18.5586 0 0
18.5586 0 0
18.6555 0 0
18.6555 0 0
18.7524 0 0
18.7524 0 0
18.8494 0 0
18.8494 0 0
18.9463 0 0
18.9463 0 0
19.0432 0 0
19.0432 0 0
19.1401 0 0
19.1401 0 0
19.2371 0 0
19.2371 0 0
19.334 0 0
19.334 0 0
19.4309 0 0
19.4309 0 0
19.5278 0 0
19.5278 0 0
19.6248 0 0
19.6248 0 0
19.7217 0 0
19.7217 0 0
19.8186 0 0
19.8186 0 0
19.9155 0 0
19.9155 0 0
20.0125 0 0
20.0125 0 0
20.1094 0 0
20.1094 0 0
20.2063 0 0
20.2063 0 0
20.3032 0 0
20.3032 0 0
20.4001 0 0
20.4001 0 0
20.4971 0 0
20.4971 0 0
20.594 0 0
20.594 0 0
20.6909 0 0
20.6909 0 0
20.7878 0 0
20.7878 0 0
20.8848 0 0
20.8848 0 0
20.9817 0 0
20.9817 0 0
21.0786 0 0
21.0786 0 0
21.1755 0 0
21.1755 0 0
21.2725 0 0
21.2725 0 0
21.3694 0 0
21.3694 0 0
21.4663 0 0
21.4663 0 0
21.5632 0 0
21.5632 0 0
21.6602 0 0
21.6602 0 0
21.7571 0 0
21.7571 0 0
21.854 0 0
21.854 0 0
21.9509 0 0
21.9509 0 0
22.0479 0 0
22.0479 0 0
22.1448 0 0
22.1448 0 0
22.2417 0 0
22.2417 0 0
22.3386 0 0
22.3386 0 0
22.4355 0 0
22.4355 0 0
22.5325 0 0
22.5325 0 0
22.6294 0 0
22.6294 0 0
22.7263 0 0
22.7263 0 0
22.8232 0 0
22.8232 0 0
22.9202 0 0
22.9202 0 0
23.0171 0 0
23.0171 0 0
23.114 0 0
23.114 0 0
23.2109 0 0
23.2109 0 0
23.3079 0 0
23.3079 0 0
23.4048 0 0
23.4048 0 0
23.5017 0 0
23.5017 0 0
23.5986 0 0
23.5986 0 0
23.6956 0 0
23.6956 0 0
23.7925 0 0
23.7925 0 0
23.8894 0 0
23.8894 0 0
23.9863 0 0
23.9863 0 0
24.0833 0 0
24.0833 0 0
24.1802 0 0
24.1802 0 0
24.2771 0 0
24.2771 0 0
24.374 0 0
24.374 0 0
24.4709 0 0
24.4709 0 0
24.5679 0 0
24.5679 0 0
24.6648 0 0
24.6648 0 0
24.7617 0 0
24.7617 0 0
24.8586 0 0
24.8586 0 0
24.9556 0 0
24.9556 0 0
25.0525 0 0
25.0525 0 0
25.1494 0 0
25.1494 0 0
25.2463 0 0
25.2463 0 0
25.3433 0 0
25.3433 0 0
25.4402 0 0
25.4402 0 0
25.5371 0 0
25.5371 0 0
25.634 0 0
25.634 0 0
25.731 0 0
25.731 0 0
25.8279 0 0
25.8279 0 0
25.9248 0 0
25.9248 0 0
26.0217 0 0
26.0217 0 0
26.1187 0 0
26.1187 0 0
26.2156 0 0
26.2156 0 0
26.3125 0 0
26.3125 0 0
26.4094 0 0
26.4094 0 0
26.5063 0 0
26.5063 0 0
26.6033 0 0
26.6033 0 0
26.7002 0 0
26.7002 0 0
26.7971 0 0
26.7971 0 0
26.894 0 0
26.894 0 0
26.991 0 0
26.991 0 0
27.0879 0 0
27.0879 0 0
27.1848 0 0
27.1848 0 0
27.2817 0 0
27.2817 0 0
27.3787 0 0
27.3787 0 0
27.4756 0 0
27.4756 0 0
27.5725 0 0
27.5725 0 0
27.6694 0 0
27.6694 0 0
27.7664 0 0
27.7664 0 0
27.8633 0 0
27.8633 0 0
27.9602 0 0
27.9602 0 0
28.0571 0 0
28.0571 0 0
28.1541 0 0
28.1541 0 0
28.251 0 0
28.251 0 0
28.3479 0 0
28.3479 0 0
28.4448 0 0
28.4448 0 0
28.5417 0 0
28.5417 0 0
28.6387 0 0
28.6387 0 0
28.7356 0 0
28.7356 0 0
28.8325 0 0
28.8325 0 0
28.9294 0 0
28.9294 0 0
29.0264 0 0
29.0264 0 0
29.1233 0 0
29.1233 0 0
29.2202 0 0
29.2202 0 0
29.3171 0 0
29.3171 0 0
29.4141 0 0
29.4141 0 0
29.511 0 0
29.511 0 0
29.6079 0 0
29.6079 0 0
29.7048 0 0
29.7048 0 0
29.8018 0 0
29.8018 0 0
29.8987 0 0
29.8987 0 0
29.9956 0 0
29.9956 0 0
30.0925 0 0
30.0925 0 0
30.1895 0 0
30.1895 0 0
30.2864 0 0
30.2864 0 0
30.3833 0 0
30.3833 0 0
30.4802 0 0
30.4802 0 0
30.5771 0 0
30.5771 0 0
30.6741 0 0
30.6741 0 0
30.771 0 0
30.771 0 0
30.8679 0 0
30.8679 0 0
30.9648 0 0
30.9648 0 0
31.0618 0 0
31.0618 0 0
31.1587 0 0
31.1587 0 0
31.2556 0 0
31.2556 0 0
31.3525 0 0
31.3525 0 0
31.4495 0 0
31.4495 0 0
31.5464 0 0
31.5464 0 0
31.6433 0 0
31.6433 0 0
31.7402 0 0
31.7402 0 0
31.8372 0 0
31.8372 0 0
31.9341 0 0
31.9341 0 0
32.031 0 0
32.031 0 0
32.1279 0 0
32.1279 0 0
32.2249 0 0
32.2249 0 0
32.3218 0 0
32.3218 0 0
32.4187 0 0
32.4187 0 0
32.5156 0 0
32.5156 0 0
32.6125 0 0
32.6125 0 0
32.7095 0 0
32.7095 0 0
32.8064 0 0
32.8064 0 0
32.9033 0 0
32.9033 0 0
33.0002 0 0
33.0002 0 0
33.0972 0 0
33.0972 0 0
33.1941 0 0
33.1941 0 0
33.291 0 0
33.291 0 0
33.3879 0 0
33.3879 0 0
33.4849 0 0
33.4849 0 0
33.5818 0 0
33.5818 0 0
33.6787 0 0
33.6787 0 0
33.7756 0 0
33.7756 0 0
33.8726 0 0
33.8726 0 0
33.9695 0 0
33.9695 0 0
34.0664 0 0
34.0664 0 0
34.1633 0 0
34.1633 0 0
34.2603 0 0
34.2603 0 0
34.3572 0 0
34.3572 0 0
34.4541 0 0
34.4541 0 0
34.551 0 0
34.551 0 0
34.6479 0 0
34.6479 0 0
34.7449 0 0
34.7449 0 0
34.8418 0 0
34.8418 0 0
34.9387 0 0
34.9387 0 0
35.0356 0 0
35.0356 0 0
35.1326 0 0
35.1326 0 0
35.2295 0 0
35.2295 0 0
35.3264 0 0
35.3264 0 0
35.4233 0 0
35.4233 0 0
35.5203 0 0
35.5203 0 0
35.6172 0 0
35.6172 0 0
35.7141 0 0
35.7141 0 0
35.811 0 0
35.811 0 0
35.908 0 0
35.908 0 0
36.0049 0 0
36.0049 0 0
36.1018 0 0
36.1018 0 0
36.1987 0 0
36.1987 0 0
36.2957 0 0
36.2957 0 0
36.3926 0 0
36.3926 0 0
36.4895 0 0
36.4895 0 0
36.5864 0 0
36.5864 0 0
36.6833 0 0
36.6833 0 0
36.7803 0 0
36.7803 0 0
36.8772 0 0
36.8772 0 0
36.9741 0 0
36.9741 0 0
37.071 0 0
37.071 0 0
37.168 0 0
37.168 0 0
37.2649 0 0
37.2649 0 0
37.3618 0 0
37.3618 0 0
37.4587 0 0
37.4587 0 0
37.5557 0 0
37.5557 0 0
37.6526 0 0
37.6526 0 0
37.7495 0 0
37.7495 0 0
37.8464 0 0
37.8464 0 0
37.9434 0 0
37.9434 0 0
38.0403 0 0
38.0403 0 0
38.1372 0 0
38.1372 0 0
38.2341 0 0
38.2341 0 0
38.3311 0 0
38.3311 0 0
38.428 0 0
38.428 0 0
38.5249 0 0
38.5249 0 0
38.6218 0 0
38.6218 0 0
38.7188 0 0
38.7188 0 0
38.8157 0 0
38.8157 0 0
38.9126 0 0
38.9126 0 0
39.0095 0 0
39.0095 0 0
39.1064 0 0
39.1064 0 0
39.2034 0 0
39.2034 0 0
39.3003 0 0
39.3003 0 0
39.3972 0 0
39.3972 0 0
39.4941 0 0
39.4941 0 0
39.5911 0 0
39.5911 0 0
39.688 0 0
39.688 0 0
39.7849 0 0
39.7849 0 0
39.8818 0 0
39.8818 0 0
39.9788 0 0
39.9788 0 0
40.0757 0 0
40.0757 0 0
40.1726 0 0
40.1726 0 0
40.2695 0 0
40.2695 0 0
40.3665 0 0
40.3665 0 0
40.4634 0 0
40.4634 0 0
40.5603 0 0
40.5603 0 0
40.6572 0 0
40.6572 0 0
40.7542 0 0
40.7542 0 0
40.8511 0 0
40.8511 0 0
40.948 0 0
40.948 0 0
41.0449 0 0
41.0449 0 0
41.1418 0 0
41.1418 0 0
41.2388 0 0
41.2388 0 0
41.3357 0 0
41.3357 0 0
41.4326 0 0
41.4326 0 0
41.5295 0 0
41.5295 0 0
[...]
POINT_DATA 4096
SCALARS solution_0 double 1
LOOKUP_TABLE default
2.11833e+06 2.07444e+06 2.07444e+06 2.03744e+06 2.03744e+06 2.00592e+06 2.00592e+06 1.97882e+06 1.97882e+06 1.9553e+06 1.9553e+06 1.93472e+06 1.93472e+06 1.91656e+06 1.91656e+06 1.90039e+06 1.90039e+06 1.88589e+06 1.88589e+06 1.87278e+06 1.87278e+06 1.86084e+06 1.86084e+06 1.84988e+06 1.84988e+06 1.83974e+06 1.83974e+06 1.8303e+06 1.8303e+06 1.82144e+06 1.82144e+06 1.81309e+06 1.81309e+06 1.80515e+06 1.80515e+06 1.79757e+06 1.79757e+06 1.79028e+06 1.79028e+06 1.78325e+06 1.78325e+06 1.77642e+06 1.77642e+06 1.76977e+06 1.76977e+06 1.76327e+06 1.76327e+06 1.75688e+06 1.75688e+06 1.75059e+06 1.75059e+06 1.74438e+06 1.74438e+06 1.73823e+06 1.73823e+06 1.73213e+06 1.73213e+06 1.72606e+06 1.72606e+06 1.72001e+06 1.72001e+06 1.71398e+06 1.71398e+06 1.70796e+06 1.70796e+06 1.70193e+06 1.70193e+06 1.6959e+06 1.6959e+06 1.68987e+06 1.68987e+06 1.68381e+06 1.68381e+06 1.67775e+06 1.67775e+06 1.67166e+06 1.67166e+06 1.66555e+06 1.66555e+06 1.65941e+06 1.65941e+06 1.65325e+06 1.65325e+06 1.64706e+06 1.64706e+06 1.64085e+06 1.64085e+06 1.63461e+06 1.63461e+06 1.62834e+06 1.62834e+06 1.62205e+06 1.62205e+06 1.61572e+06 1.61572e+06 1.60937e+06 1.60937e+06 1.60299e+06 1.60299e+06 1.59658e+06 1.59658e+06 1.59015e+06 1.59015e+06 1.5837e+06 1.5837e+06 1.57722e+06 1.57722e+06 1.57071e+06 1.57071e+06 1.56418e+06 1.56418e+06 1.55763e+06 1.55763e+06 1.55106e+06 1.55106e+06 1.54447e+06 1.54447e+06 1.53786e+06 1.53786e+06 1.53124e+06 1.53124e+06 1.52459e+06 1.52459e+06 1.51793e+06 1.51793e+06 1.51126e+06 1.51126e+06 1.50457e+06 1.50457e+06 1.49787e+06 1.49787e+06 1.49116e+06 1.49116e+06 1.48444e+06 1.48444e+06 1.47771e+06 1.47771e+06 1.47097e+06 1.47097e+06 1.46423e+06 1.46423e+06 1.45748e+06 1.45748e+06 1.45072e+06 1.45072e+06 1.44396e+06 1.44396e+06 1.43719e+06 1.43719e+06 1.43043e+06 1.43043e+06 1.42366e+06 1.42366e+06 1.41689e+06 1.41689e+06 1.41012e+06 1.41012e+06 1.40336e+06 1.40336e+06 1.39659e+06 1.39659e+06 1.38983e+06 1.38983e+06 1.38308e+06 1.38308e+06 1.37633e+06 1.37633e+06 1.36958e+06 1.36958e+06 1.36284e+06 1.36284e+06 1.35611e+06 1.35611e+06 1.34939e+06 1.34939e+06 1.34267e+06 1.34267e+06 1.33597e+06 1.33597e+06 1.32927e+06 1.32927e+06 1.32258e+06 1.32258e+06 1.31591e+06 1.31591e+06 1.30925e+06 1.30925e+06 1.3026e+06 1.3026e+06 1.29596e+06 1.29596e+06 1.28934e+06 1.28934e+06 1.28273e+06 1.28273e+06 1.27614e+06 1.27614e+06 1.26956e+06 1.26956e+06 1.263e+06 1.263e+06 1.25646e+06 1.25646e+06 1.24993e+06 1.24993e+06 1.24342e+06 1.24342e+06 1.23693e+06 1.23693e+06 1.23045e+06 1.23045e+06 1.22399e+06 1.22399e+06 1.21756e+06 1.21756e+06 1.21114e+06 1.21114e+06 1.20474e+06 1.20474e+06 1.19836e+06 1.19836e+06 1.19201e+06 1.19201e+06 1.18567e+06 1.18567e+06 1.17936e+06 1.17936e+06 1.17306e+06 1.17306e+06 1.16679e+06 1.16679e+06 1.16054e+06 1.16054e+06 1.15431e+06 1.15431e+06 1.14811e+06 1.14811e+06 1.14193e+06 1.14193e+06 1.13577e+06 1.13577e+06 1.12963e+06 1.12963e+06 1.12352e+06 1.12352e+06 1.11744e+06 1.11744e+06 1.11137e+06 1.11137e+06 1.10533e+06 1.10533e+06 1.09932e+06 1.09932e+06 1.09333e+06 1.09333e+06 1.08736e+06 1.08736e+06 1.08142e+06 1.08142e+06 1.0755e+06 1.0755e+06 1.06961e+06 1.06961e+06 1.06375e+06 1.06375e+06 1.05791e+06 1.05791e+06 1.05209e+06 1.05209e+06 1.04631e+06 1.04631e+06 1.04054e+06 1.04054e+06 1.03481e+06 1.03481e+06 1.0291e+06 1.0291e+06 1.02341e+06 1.02341e+06 1.01775e+06 1.01775e+06 1.01212e+06 1.01212e+06 1.00651e+06 1.00651e+06 1.00093e+06 1.00093e+06 995381 995381 989854 989854 984353 984353 978880 978880 973432 973432 968011 968011 962617 962617 957250 957250 951909 951909 946595 946595 941307 941307 936046 936046 930812 930812 925605 925605 920424 920424 915270 915270 910142 910142 905041 905041 899966 899966 894918 894918 889896 889896 884901 884901 879932 879932 874990 874990 870074 870074 865184 865184 860321 860321 855483 855483 850672 850672 845887 845887 841127 841127 836394 836394 831687 831687 827005 827005 822349 822349 817719 817719 813114 813114 808535 808535 803981 803981 799453 799453 794949 794949 790472 790472 786019 786019 781591 781591 777188 777188 772810 772810 768456 768456 764128 764128 759824 759824 755544 755544 751289 751289 747058 747058 742851 742851 738669 738669 734510 734510 730376 730376 726265 726265 722177 722177 718114 718114 714074 714074 710057 710057 706064 706064 702093 702093 698146 698146 694222 694222 690321 690321 686442 686442 682586 682586 678753 678753 674942 674942 671154 671154 667387 667387 663643 663643 659921 659921 656221 656221 652542 652542 648886 648886 645250 645250 641636 641636 638044 638044 634473 634473 630923 630923 627394 627394 623886 623886 620398 620398 616932 616932 613486 613486 610060 610060 606655 606655 603270 603270 599905 599905 596561 596561 593236 593236 589931 589931 586645 586645 583380 583380 580133 580133 576906 576906 573699 573699 570510 570510 567341 567341 564190 564190 561058 561058 557945 557945 554851 554851 551775 551775 548718 548718 545678 545678 542657 542657 539654 539654 536669 536669 533702 533702 530753 530753 527821 527821 524907 524907 522010 522010 519130 519130 516268 516268 513423 513423 510595 510595 507784 507784 504989 504989 502212 502212 499451 499451 496706 496706 493978 493978 491266 491266 488571 488571 485891 485891 483228 483228 480580 480580 477949 477949 475333 475333 472732 472732 470147 470147 467578 467578 465024 465024 462485 462485 459961 459961 457452 457452 454958 454958 452480 452480 450015 450015 447566 447566 445131 445131 442710 442710 440304 440304 437913 437913 435535 435535 433172 433172 430822 430822 428487 428487 426165 426165 423857 423857 421563 421563 419282 419282 417015 417015 414761 414761 412521 412521 410294 410294 408080 408080 405879 405879 403691 403691 401516 401516 399354 399354 397204 397204 395067 395067 392943 392943 390831 390831 388732 388732 386645 386645 384570 384570 382507 382507 380457 380457 378418 378418 376391 376391 374377 374377 372374 372374 370382 370382 368403 368403 366435 366435 364478 364478 362533 362533 360599 360599 358676 358676 356765 356765 354864 354864 352975 352975 351097 351097 349229 349229 347372 347372 345526 345526 343691 343691 341866 341866 340052 340052 338249 338249 336455 336455 334673 334673 332900 332900 331137 331137 329385 329385 327643 327643 325910 325910 324188 324188 322476 322476 320773 320773 319080 319080 317397 317397 315723 315723 314059 314059 312404 312404 310759 310759 309123 309123 307497 307497 305879 305879 304271 304271 302672 302672 301082 301082 299501 299501 297929 297929 296366 296366 294812 294812 293266 293266 291729 291729 290201 290201 288681 288681 287170 287170 285668 285668 284173 284173 282688 282688 281210 281210 279741 279741 278280 278280 276827 276827 275382 275382 273946 273946 272517 272517 271096 271096 269683 269683 268278 268278 266881 266881 265491 265491 264109 264109 262735 262735 261369 261369 260009 260009 258658 258658 257314 257314 255977 255977 254648 254648 253325 253325 252011 252011 250703 250703 249402 249402 248109 248109 246823 246823 245543 245543 244271 244271 243006 243006 241747 241747 240495 240495 239250 239250 238012 238012 236781 236781 235556 235556 234338 234338 233126 233126 231921 231921 230722 230722 229530 229530 228345 228345 227165 227165 225992 225992 224825 224825 223665 223665 222511 222511 221362 221362 220220 220220 219085 219085 217955 217955 216831 216831 215713 215713 214601 214601 213495 213495 212395 212395 211300 211300 210212 210212 209129 209129 208052 208052 206980 206980 205914 205914 204854 204854 203800 203800 202750 202750 201707 201707 200669 200669 199636 199636 198608 198608 197586 197586 196570 196570 195558 195558 194552 194552 193551 193551 192556 192556 191565 191565 190580 190580 189599 189599 188624 188624 187654 187654 186688 186688 185728 185728 184773 184773 183822 183822 182877 182877 181936 181936 181000 181000 180069 180069 179143 179143 178221 178221 177304 177304 176392 176392 175484 175484 174581 174581 173683 173683 172789 172789 171899 171899 171014 171014 170134 170134 169258 169258 168386 168386 167519 167519 166656 166656 165798 165798 164944 164944 164094 164094 163248 163248 162407 162407 161569 161569 160736 160736 159907 159907 159083 159083 158262 158262 157445 157445 156633 156633 155824 155824 155020 155020 154219 154219 153423 153423 152630 152630 151841 151841 151056 151056 150275 150275 149498 149498 148724 148724 147955 147955 147189 147189 146427 146427 145668 145668 144914 144914 144163 144163 143415 143415 142672 142672 141931 141931 141195 141195 140462 140462 139732 139732 139007 139007 138284 138284 137565 137565 136850 136850 136138 136138 135429 135429 134724 134724 134022 134022 133324 133324 132628 132628 131937 131937 131248 131248 130563 130563 129881 129881 129202 129202 128527 128527 127854 127854 127185 127185 126519 126519 125857 125857 125197 125197 124540 124540 123887 123887 123236 123236 122589 122589 121945 121945 121304 121304 120665 120665 120030 120030 119398 119398 118768 118768 118142 118142 117518 117518 116898 116898 116280 116280 115665 115665 115053 115053 114444 114444 113838 113838 113234 113234 112633 112633 112035 112035 111440 111440 110848 110848 110258 110258 109671 109671 109087 109087 108505 108505 107926 107926 107349 107349 106776 106776 106205 106205 105636 105636 105070 105070 104507 104507 103946 103946 103388 103388 102832 102832 102279 102279 101728 101728 101180 101180 100634 100634 100091 100091 99549.9 99549.9 99011.5 99011.5 98475.5 98475.5 97941.9 97941.9 97410.7 97410.7 96881.9 96881.9 96355.4 96355.4 95831.3 95831.3 95309.6 95309.6 94790.1 94790.1 94273 94273 93758.2 93758.2 93245.6 93245.6 92735.3 92735.3 92227.3 92227.3 91721.6 91721.6 91218.1 91218.1 90716.8 90716.8 90217.7 90217.7 89720.8 89720.8 89226.1 89226.1 88733.6 88733.6 88243.3 88243.3 87755.1 87755.1 87269 87269 86785.1 86785.1 86303.3 86303.3 85823.6 85823.6 85346 85346 84870.5 84870.5 84397 84397 83925.7 83925.7 83456.3 83456.3 82989 82989 82523.8 82523.8 82060.5 82060.5 81599.3 81599.3 81140 81140 80682.8 80682.8 80227.5 80227.5 79774.1 79774.1 79322.8 79322.8 78873.4 78873.4 78425.9 78425.9 77980.3 77980.3 77536.6 77536.6 77094.9 77094.9 76655 76655 76217 76217 75780.9 75780.9 75346.6 75346.6 74914.2 74914.2 74483.7 74483.7 74054.9 74054.9 73628 73628 73202.9 73202.9 72779.6 72779.6 72358.1 72358.1 71938.4 71938.4 71520.5 71520.5 71104.3 71104.3 70689.9 70689.9 70277.2 70277.2 69866.3 69866.3 69457.1 69457.1 69049.6 69049.6 68643.8 68643.8 68239.8 68239.8 67837.4 67837.4 67436.7 67436.7 67037.7 67037.7 66640.3 66640.3 66244.6 66244.6 65850.6 65850.6 65458.2 65458.2 65067.4 65067.4 64678.3 64678.3 64290.8 64290.8 63904.8 63904.8 63520.5 63520.5 63137.8 63137.8 62756.7 62756.7 62377.1 62377.1 61999.1 61999.1 61622.6 61622.6 61247.8 61247.8 60874.4 60874.4 60502.6 60502.6 60132.3 60132.3 59763.5 59763.5 59396.3 59396.3 59030.5 59030.5 58666.3 58666.3 58303.5 58303.5 57942.2 57942.2 57582.4 57582.4 57224.1 57224.1 56867.2 56867.2 56511.8 56511.8 56157.8 56157.8 55805.2 55805.2 55454.1 55454.1 55104.4 55104.4 54756.1 54756.1 54409.3 54409.3 54063.8 54063.8 53719.7 53719.7 53377 53377 53035.7 53035.7 52695.8 52695.8 52357.2 52357.2 52020 52020 51684.2 51684.2 51349.7 51349.7 51016.5 51016.5 50684.7 50684.7 50354.2 50354.2 50025 50025 49697.1 49697.1 49370.6 49370.6 49045.3 49045.3 48721.3 48721.3 48398.7 48398.7 48077.3 48077.3 47757.1 47757.1 47438.3 47438.3 47120.7 47120.7 46804.4 46804.4 46489.3 46489.3 46175.5 46175.5 45862.9 45862.9 45551.5 45551.5 45241.4 45241.4 44932.5 44932.5 44624.8 44624.8 44318.3 44318.3 44013 44013 43708.9 43708.9 43406 43406 43104.3 43104.3 42803.8 42803.8 42504.4 42504.4 42206.3 42206.3 41909.2 41909.2 41613.4 41613.4 41318.7 41318.7 41025.1 41025.1 40732.7 40732.7 40441.4 40441.4 40151.2 40151.2 39862.2 39862.2 39574.3 39574.3 39287.5 39287.5 39001.8 39001.8 38717.2 38717.2 38433.7 38433.7 38151.4 38151.4 37870.1 37870.1 37589.8 37589.8 37310.7 37310.7 37032.6 37032.6 36755.6 36755.6 36479.7 36479.7 36204.8 36204.8 35931 35931 35658.2 35658.2 35386.5 35386.5 35115.8 35115.8 34846.1 34846.1 34577.5 34577.5 34309.9 34309.9 34043.3 34043.3 33777.7 33777.7 33513.1 33513.1 33249.6 33249.6 32987 32987 32725.4 32725.4 32464.9 32464.9 32205.3 32205.3 31946.7 31946.7 31689 31689 31432.4 31432.4 31176.7 31176.7 30922 30922 30668.2 30668.2 30415.4 30415.4 30163.5 30163.5 29912.6 29912.6 29662.6 29662.6 29413.6 29413.6 29165.5 29165.5 28918.3 28918.3 28672.1 28672.1 28426.8 28426.8 28182.4 28182.4 27938.9 27938.9 27696.3 27696.3 27454.6 27454.6 27213.8 27213.8 26973.9 26973.9 26734.9 26734.9 26496.8 26496.8 26259.6 26259.6 26023.3 26023.3 25787.8 25787.8 25553.2 25553.2 25319.5 25319.5 25086.6 25086.6 24854.6 24854.6 24623.5 24623.5 24393.2 24393.2 24163.7 24163.7 23935.1 23935.1 23707.4 23707.4 23480.5 23480.5 23254.4 23254.4 23029.1 23029.1 22804.7 22804.7 22581.1 22581.1 22358.3 22358.3 22136.3 22136.3 21915.2 21915.2 21694.8 21694.8 21475.3 21475.3 21256.5 21256.5 21038.6 21038.6 20821.4 20821.4 20605.1 20605.1 20389.5 20389.5 20174.7 20174.7 19960.7 19960.7 19747.4 19747.4 19535 19535 19323.3 19323.3 19112.4 19112.4 18902.2 18902.2 18692.8 18692.8 18484.2 18484.2 18276.3 18276.3 18069.1 18069.1 17862.7 17862.7 17657.1 17657.1 17452.2 17452.2 17248 17248 17044.6 17044.6 16841.9 16841.9 16639.9 16639.9 16438.6 16438.6 16238.1 16238.1 16038.3 16038.3 15839.2 15839.2 15640.8 15640.8 15443.1 15443.1 15246.2 15246.2 15049.9 15049.9 14854.3 14854.3 14659.5 14659.5 14465.3 14465.3 14271.8 14271.8 14079 14079 13886.9 13886.9 13695.5 13695.5 13504.7 13504.7 13314.6 13314.6 13125.2 13125.2 12936.5 12936.5 12748.5 12748.5 12561.1 12561.1 12374.3 12374.3 12188.3 12188.3 12002.8 12002.8 11818.1 11818.1 11634 11634 11450.5 11450.5 11267.7 11267.7 11085.5 11085.5 10904 10904 10723.1 10723.1 10542.8 10542.8 10363.2 10363.2 10184.2 10184.2 10005.9 10005.9 9828.11 9828.11 9650.99 9650.99 9474.48 9474.48 9298.6 9298.6 9123.33 9123.33 8948.67 8948.67 8774.62 8774.62 8601.17 8601.17 8428.33 8428.33 8256.09 8256.09 8084.45 8084.45 7913.41 7913.41 7742.96 7742.96 7573.11 7573.11 7403.84 7403.84 7235.16 7235.16 7067.06 7067.06 6899.55 6899.55 6732.61 6732.61 6566.26 6566.26 6400.48 6400.48 6235.27 6235.27 6070.63 6070.63 5906.55 5906.55 5743.05 5743.05 5580.1 5580.1 5417.72 5417.72 5255.9 5255.9 5094.63 5094.63 4933.92 4933.92 4773.76 4773.76 4614.14 4614.14 4455.08 4455.08 4296.56 4296.56 4138.58 4138.58 3981.14 3981.14 3824.24 3824.24 3667.88 3667.88 3512.05 3512.05 3356.75 3356.75 3201.98 3201.98 3047.74 3047.74 2894.02 2894.02 2740.83 2740.83 2588.16 2588.16 2436 2436 2284.37 2284.37 2133.24 2133.24 1982.63 1982.63 1832.54 1832.54 1682.95 1682.95 1533.87 1533.87 1385.29 1385.29 1237.22 1237.22 1089.65 1089.65 942.581 942.581 796.01 796.01 649.937 649.937 504.358 504.358 359.274 359.274 214.682 214.682 70.5801 70.5801 -73.0326 -73.0326 -216.158 -216.158 -358.797 -358.797 -500.953 -500.953 -642.625 -642.625 -783.817 -783.817 -924.53 -924.53 -1064.76 -1064.76 -1204.52 -1204.52 -1343.81 -1343.81 -1482.62 -1482.62 -1620.96 -1620.96 -1758.84 -1758.84 -1896.24 -1896.24 -2033.19 -2033.19 -2169.67 -2169.67 -2305.69 -2305.69 -2441.25 -2441.25 -2576.35 -2576.35 -2711 -2711 -2845.2 -2845.2 -2978.95 -2978.95 -3112.25 -3112.25 -3245.11 -3245.11 -3377.52 -3377.52 -3509.5 -3509.5 -3641.03 -3641.03 -3772.14 -3772.14 -3902.8 -3902.8 -4033.04 -4033.04 -4162.85 -4162.85 -4292.24 -4292.24 -4421.2 -4421.2 -4549.74 -4549.74 -4677.86 -4677.86 -4805.57 -4805.57 -4932.86 -4932.86 -5059.74 -5059.74 -5186.21 -5186.21 -5312.27 -5312.27 -5437.92 -5437.92 -5563.17 -5563.17 -5688.02 -5688.02 -5812.46 -5812.46 -5936.5 -5936.5 -6060.14 -6060.14 -6183.38 -6183.38 -6306.22 -6306.22 -6428.67 -6428.67 -6550.72 -6550.72 -6672.38 -6672.38 -6793.64 -6793.64 -6914.51 -6914.51 -7034.98 -7034.98 -7155.06 -7155.06 -7274.75 -7274.75 -7394.05 -7394.05 -7512.96 -7512.96 -7631.49 -7631.49 -7749.62 -7749.62 -7867.36 -7867.36 -7984.72 -7984.72 -8101.69 -8101.69 -8218.28 -8218.28 -8334.49 -8334.49 -8450.31 -8450.31 -8565.75 -8565.75 -8680.81 -8680.81 -8795.5 -8795.5 -8909.8 -8909.8 -9023.73 -9023.73 -9137.29 -9137.29 -9250.47 -9250.47 -9363.28 -9363.28 -9475.73 -9475.73 -9587.8 -9587.8 -9699.51 -9699.51 -9810.85 -9810.85 -9921.83 -9921.83 -10032.5 -10032.5 -10142.7 -10142.7 -10252.6 -10252.6 -10362.1 -10362.1 -10471.3 -10471.3 -10580.2 -10580.2 -10688.6 -10688.6 -10796.8 -10796.8 -10904.5 -10904.5 -11012 -11012 -11119.1 -11119.1 -11225.8 -11225.8 -11332.2 -11332.2 -11438.2 -11438.2 -11543.9 -11543.9 -11649.3 -11649.3 -11754.3 -11754.3 -11859 -11859 -11963.4 -11963.4 -12067.4 -12067.4 -12171.1 -12171.1 -12274.4 -12274.4 -12377.4 -12377.4 -12480.1 -12480.1 -12582.5 -12582.5 -12684.5 -12684.5 -12786.2 -12786.2 -12887.6 -12887.6 -12988.7 -12988.7 -13089.4 -13089.4 -13189.8 -13189.8 -13289.9 -13289.9 -13389.7 -13389.7 -13489.1 -13489.1 -13588.2 -13588.2 -13687 -13687 -13785.5 -13785.5 -13883.7 -13883.7 -13981.6 -13981.6 -14079.2 -14079.2 -14176.4 -14176.4 -14273.4 -14273.4 -14370 -14370 -14466.3 -14466.3 -14562.3 -14562.3 -14658 -14658 -14753.5 -14753.5 -14848.6 -14848.6 -14943.4 -14943.4 -15037.9 -15037.9 -15132.1 -15132.1 -15226 -15226 -15319.6 -15319.6 -15412.9 -15412.9 -15505.9 -15505.9 -15598.6 -15598.6 -15691 -15691 -15783.2 -15783.2 -15875 -15875 -15966.6 -15966.6 -16057.8 -16057.8 -16148.8 -16148.8 -16239.5 -16239.5 -16329.9 -16329.9 -16420 -16420 -16509.8 -16509.8 -16599.4 -16599.4 -16688.6 -16688.6 -16777.6 -16777.6 -16866.3 -16866.3 -16954.7 -16954.7 -17042.9 -17042.9 -17130.7 -17130.7 -17218.3 -17218.3 -17305.7 -17305.7 -17392.7 -17392.7 -17479.5 -17479.5 -17565.9 -17565.9 -17652.2 -17652.2 -17738.1 -17738.1 -17823.8 -17823.8 -17909.2 -17909.2 -17994.4 -17994.4 -18079.2 -18079.2 -18163.8 -18163.8 -18248.2 -18248.2 -18332.3 -18332.3 -18416.1 -18416.1 -18499.6 -18499.6 -18582.9 -18582.9 -18666 -18666 -18748.7 -18748.7 -18831.2 -18831.2 -18913.5 -18913.5 -18995.5 -18995.5 -19077.2 -19077.2 -19158.7 -19158.7 -19240 -19240 -19320.9 -19320.9 -19401.7 -19401.7 -19482.1 -19482.1 -19562.4 -19562.4 -19642.3 -19642.3 -19722.1 -19722.1 -19801.5 -19801.5 -19880.8 -19880.8 -19959.7 -19959.7 -20038.5 -20038.5 -20117 -20117 -20195.2 -20195.2 -20273.2 -20273.2 -20351 -20351 -20428.5 -20428.5 -20505.8 -20505.8 -20582.8 -20582.8 -20659.6 -20659.6 -20736.2 -20736.2 -20812.5 -20812.5 -20888.6 -20888.6 -20964.4 -20964.4 -21040 -21040 -21115.4 -21115.4 -21190.5 -21190.5 -21265.4 -21265.4 -21340.1 -21340.1 -21414.6 -21414.6 -21488.8 -21488.8 -21562.8 -21562.8 -21636.5 -21636.5 -21710.1 -21710.1 -21783.4 -21783.4 -21856.4 -21856.4 -21929.3 -21929.3 -22001.9 -22001.9 -22074.3 -22074.3 -22146.5 -22146.5 -22218.4 -22218.4 -22290.2 -22290.2 -22361.7 -22361.7 -22432.9 -22432.9 -22504 -22504 -22574.9 -22574.9 -22645.5 -22645.5 -22715.9 -22715.9 -22786.1 -22786.1 -22856.1 -22856.1 -22925.8 -22925.8 -22995.4 -22995.4 -23064.7 -23064.7 -23133.8 -23133.8 -23202.7 -23202.7 -23271.4 -23271.4 -23339.9 -23339.9 -23408.2 -23408.2 -23476.2 -23476.2 -23544.1 -23544.1 -23611.7 -23611.7 -23679.2 -23679.2 -23746.4 -23746.4 -23813.4 -23813.4 -23880.2 -23880.2 -23946.8 -23946.8 -24013.2 -24013.2 -24079.4 -24079.4 -24145.4 -24145.4 -24211.2 -24211.2 -24276.8 -24276.8 -24342.2 -24342.2 -24407.4 -24407.4 -24472.4 -24472.4 -24537.2 -24537.2 -24601.8 -24601.8 -24666.2 -24666.2 -24730.4 -24730.4 -24794.4 -24794.4 -24858.2 -24858.2 -24921.8 -24921.8 -24985.2 -24985.2 -25048.4 -25048.4 -25111.5 -25111.5 -25174.3 -25174.3 -25236.9 -25236.9 -25299.4 -25299.4 -25361.6 -25361.6 -25423.7 -25423.7 -25485.6 -25485.6 -25547.3 -25547.3 -25608.8 -25608.8 -25670.1 -25670.1 -25731.2 -25731.2 -25792.1 -25792.1 -25852.9 -25852.9 -25913.5 -25913.5 -25973.8 -25973.8 -26034 -26034 -26094 -26094 -26153.9 -26153.9 -26213.5 -26213.5 -26273 -26273 -26332.3 -26332.3 -26391.4 -26391.4 -26450.3 -26450.3 -26509 -26509 -26567.6 -26567.6 -26626 -26626 -26684.2 -26684.2 -26742.2 -26742.2 -26800.1 -26800.1 -26857.7 -26857.7 -26915.2 -26915.2 -26972.