# vtk DataFile Version 3.0
#This file was generated by the deal.II library on 2020/9/6 at 2:57:58
ASCII
DATASET UNSTRUCTURED_GRID

POINTS 4096 double
1.5 0 0
1.59692 0 0
1.59692 0 0
1.69385 0 0
1.69385 0 0
1.79077 0 0
1.79077 0 0
1.8877 0 0
1.8877 0 0
1.98462 0 0
1.98462 0 0
2.08154 0 0
2.08154 0 0
2.17847 0 0
2.17847 0 0
2.27539 0 0
2.27539 0 0
2.37231 0 0
2.37231 0 0
2.46924 0 0
2.46924 0 0
2.56616 0 0
2.56616 0 0
2.66309 0 0
2.66309 0 0
2.76001 0 0
2.76001 0 0
2.85693 0 0
2.85693 0 0
2.95386 0 0
2.95386 0 0
3.05078 0 0
3.05078 0 0
3.14771 0 0
3.14771 0 0
3.24463 0 0
3.24463 0 0
3.34155 0 0
3.34155 0 0
3.43848 0 0
3.43848 0 0
3.5354 0 0
3.5354 0 0
3.63232 0 0
3.63232 0 0
3.72925 0 0
3.72925 0 0
3.82617 0 0
3.82617 0 0
3.9231 0 0
3.9231 0 0
4.02002 0 0
4.02002 0 0
4.11694 0 0
4.11694 0 0
4.21387 0 0
4.21387 0 0
4.31079 0 0
4.31079 0 0
4.40771 0 0
4.40771 0 0
4.50464 0 0
4.50464 0 0
4.60156 0 0
4.60156 0 0
4.69849 0 0
4.69849 0 0
4.79541 0 0
4.79541 0 0
4.89233 0 0
4.89233 0 0
4.98926 0 0
4.98926 0 0
5.08618 0 0
5.08618 0 0
5.18311 0 0
5.18311 0 0
5.28003 0 0
5.28003 0 0
5.37695 0 0
5.37695 0 0
5.47388 0 0
5.47388 0 0
5.5708 0 0
5.5708 0 0
5.66772 0 0
5.66772 0 0
5.76465 0 0
5.76465 0 0
5.86157 0 0
5.86157 0 0
5.9585 0 0
5.9585 0 0
6.05542 0 0
6.05542 0 0
6.15234 0 0
6.15234 0 0
6.24927 0 0
6.24927 0 0
6.34619 0 0
6.34619 0 0
6.44312 0 0
6.44312 0 0
6.54004 0 0
6.54004 0 0
6.63696 0 0
6.63696 0 0
6.73389 0 0
6.73389 0 0
6.83081 0 0
6.83081 0 0
6.92773 0 0
6.92773 0 0
7.02466 0 0
7.02466 0 0
7.12158 0 0
7.12158 0 0
7.21851 0 0
7.21851 0 0
7.31543 0 0
7.31543 0 0
7.41235 0 0
7.41235 0 0
7.50928 0 0
7.50928 0 0
7.6062 0 0
7.6062 0 0
7.70312 0 0
7.70312 0 0
7.80005 0 0
7.80005 0 0
7.89697 0 0
7.89697 0 0
7.9939 0 0
7.9939 0 0
8.09082 0 0
8.09082 0 0
8.18774 0 0
8.18774 0 0
8.28467 0 0
8.28467 0 0
8.38159 0 0
8.38159 0 0
8.47852 0 0
8.47852 0 0
8.57544 0 0
8.57544 0 0
8.67236 0 0
8.67236 0 0
8.76929 0 0
8.76929 0 0
8.86621 0 0
8.86621 0 0
8.96313 0 0
8.96313 0 0
9.06006 0 0
9.06006 0 0
9.15698 0 0
9.15698 0 0
9.25391 0 0
9.25391 0 0
9.35083 0 0
9.35083 0 0
9.44775 0 0
9.44775 0 0
9.54468 0 0
9.54468 0 0
9.6416 0 0
9.6416 0 0
9.73853 0 0
9.73853 0 0
9.83545 0 0
9.83545 0 0
9.93237 0 0
9.93237 0 0
10.0293 0 0
10.0293 0 0
10.1262 0 0
10.1262 0 0
10.2231 0 0
10.2231 0 0
10.3201 0 0
10.3201 0 0
10.417 0 0
10.417 0 0
10.5139 0 0
10.5139 0 0
10.6108 0 0
10.6108 0 0
10.7078 0 0
10.7078 0 0
10.8047 0 0
10.8047 0 0
10.9016 0 0
10.9016 0 0
10.9985 0 0
10.9985 0 0
11.0955 0 0
11.0955 0 0
11.1924 0 0
11.1924 0 0
11.2893 0 0
11.2893 0 0
11.3862 0 0
11.3862 0 0
11.4832 0 0
11.4832 0 0
11.5801 0 0
11.5801 0 0
11.677 0 0
11.677 0 0
11.7739 0 0
11.7739 0 0
11.8708 0 0
11.8708 0 0
11.9678 0 0
11.9678 0 0
12.0647 0 0
12.0647 0 0
12.1616 0 0
12.1616 0 0
12.2585 0 0
12.2585 0 0
12.3555 0 0
12.3555 0 0
12.4524 0 0
12.4524 0 0
12.5493 0 0
12.5493 0 0
12.6462 0 0
12.6462 0 0
12.7432 0 0
12.7432 0 0
12.8401 0 0
12.8401 0 0
12.937 0 0
12.937 0 0
13.0339 0 0
13.0339 0 0
13.1309 0 0
13.1309 0 0
13.2278 0 0
13.2278 0 0
13.3247 0 0
13.3247 0 0
13.4216 0 0
13.4216 0 0
13.5186 0 0
13.5186 0 0
13.6155 0 0
13.6155 0 0
13.7124 0 0
13.7124 0 0
13.8093 0 0
13.8093 0 0
13.9062 0 0
13.9062 0 0
14.0032 0 0
14.0032 0 0
14.1001 0 0
14.1001 0 0
14.197 0 0
14.197 0 0
14.2939 0 0
14.2939 0 0
14.3909 0 0
14.3909 0 0
14.4878 0 0
14.4878 0 0
14.5847 0 0
14.5847 0 0
14.6816 0 0
14.6816 0 0
14.7786 0 0
14.7786 0 0
14.8755 0 0
14.8755 0 0
14.9724 0 0
14.9724 0 0
15.0693 0 0
15.0693 0 0
15.1663 0 0
15.1663 0 0
15.2632 0 0
15.2632 0 0
15.3601 0 0
15.3601 0 0
15.457 0 0
15.457 0 0
15.554 0 0
15.554 0 0
15.6509 0 0
15.6509 0 0
15.7478 0 0
15.7478 0 0
15.8447 0 0
15.8447 0 0
15.9417 0 0
15.9417 0 0
16.0386 0 0
16.0386 0 0
16.1355 0 0
16.1355 0 0
16.2324 0 0
16.2324 0 0
16.3293 0 0
16.3293 0 0
16.4263 0 0
16.4263 0 0
16.5232 0 0
16.5232 0 0
16.6201 0 0
16.6201 0 0
16.717 0 0
16.717 0 0
16.814 0 0
16.814 0 0
16.9109 0 0
16.9109 0 0
17.0078 0 0
17.0078 0 0
17.1047 0 0
17.1047 0 0
17.2017 0 0
17.2017 0 0
17.2986 0 0
17.2986 0 0
17.3955 0 0
17.3955 0 0
17.4924 0 0
17.4924 0 0
17.5894 0 0
17.5894 0 0
17.6863 0 0
17.6863 0 0
17.7832 0 0
17.7832 0 0
17.8801 0 0
17.8801 0 0
17.9771 0 0
17.9771 0 0
18.074 0 0
18.074 0 0
18.1709 0 0
18.1709 0 0
18.2678 0 0
18.2678 0 0
18.3647 0 0
18.3647 0 0
18.4617 0 0
18.4617 0 0
18.5586 0 0
18.5586 0 0
18.6555 0 0
18.6555 0 0
18.7524 0 0
18.7524 0 0
18.8494 0 0
18.8494 0 0
18.9463 0 0
18.9463 0 0
19.0432 0 0
19.0432 0 0
19.1401 0 0
19.1401 0 0
19.2371 0 0
19.2371 0 0
19.334 0 0
19.334 0 0
19.4309 0 0
19.4309 0 0
19.5278 0 0
19.5278 0 0
19.6248 0 0
19.6248 0 0
19.7217 0 0
19.7217 0 0
19.8186 0 0
19.8186 0 0
19.9155 0 0
19.9155 0 0
20.0125 0 0
20.0125 0 0
20.1094 0 0
20.1094 0 0
20.2063 0 0
20.2063 0 0
20.3032 0 0
20.3032 0 0
20.4001 0 0
20.4001 0 0
20.4971 0 0
20.4971 0 0
20.594 0 0
20.594 0 0
20.6909 0 0
20.6909 0 0
20.7878 0 0
20.7878 0 0
20.8848 0 0
20.8848 0 0
20.9817 0 0
20.9817 0 0
21.0786 0 0
21.0786 0 0
21.1755 0 0
21.1755 0 0
21.2725 0 0
21.2725 0 0
21.3694 0 0
21.3694 0 0
21.4663 0 0
21.4663 0 0
21.5632 0 0
21.5632 0 0
21.6602 0 0
21.6602 0 0
21.7571 0 0
21.7571 0 0
21.854 0 0
21.854 0 0
21.9509 0 0
21.9509 0 0
22.0479 0 0
22.0479 0 0
22.1448 0 0
22.1448 0 0
22.2417 0 0
22.2417 0 0
22.3386 0 0
22.3386 0 0
22.4355 0 0
22.4355 0 0
22.5325 0 0
22.5325 0 0
22.6294 0 0
22.6294 0 0
22.7263 0 0
22.7263 0 0
22.8232 0 0
22.8232 0 0
22.9202 0 0
22.9202 0 0
23.0171 0 0
23.0171 0 0
23.114 0 0
23.114 0 0
23.2109 0 0
23.2109 0 0
23.3079 0 0
23.3079 0 0
23.4048 0 0
23.4048 0 0
23.5017 0 0
23.5017 0 0
23.5986 0 0
23.5986 0 0
23.6956 0 0
23.6956 0 0
23.7925 0 0
23.7925 0 0
23.8894 0 0
23.8894 0 0
23.9863 0 0
23.9863 0 0
24.0833 0 0
24.0833 0 0
24.1802 0 0
24.1802 0 0
24.2771 0 0
24.2771 0 0
24.374 0 0
24.374 0 0
24.4709 0 0
24.4709 0 0
24.5679 0 0
24.5679 0 0
24.6648 0 0
24.6648 0 0
24.7617 0 0
24.7617 0 0
24.8586 0 0
24.8586 0 0
24.9556 0 0
24.9556 0 0
25.0525 0 0
25.0525 0 0
25.1494 0 0
25.1494 0 0
25.2463 0 0
25.2463 0 0
25.3433 0 0
25.3433 0 0
25.4402 0 0
25.4402 0 0
25.5371 0 0
25.5371 0 0
25.634 0 0
25.634 0 0
25.731 0 0
25.731 0 0
25.8279 0 0
25.8279 0 0
25.9248 0 0
25.9248 0 0
26.0217 0 0
26.0217 0 0
26.1187 0 0
26.1187 0 0
26.2156 0 0
26.2156 0 0
26.3125 0 0
26.3125 0 0
26.4094 0 0
26.4094 0 0
26.5063 0 0
26.5063 0 0
26.6033 0 0
26.6033 0 0
26.7002 0 0
26.7002 0 0
26.7971 0 0
26.7971 0 0
26.894 0 0
26.894 0 0
26.991 0 0
26.991 0 0
27.0879 0 0
27.0879 0 0
27.1848 0 0
27.1848 0 0
27.2817 0 0
27.2817 0 0
27.3787 0 0
27.3787 0 0
27.4756 0 0
27.4756 0 0
27.5725 0 0
27.5725 0 0
27.6694 0 0
27.6694 0 0
27.7664 0 0
27.7664 0 0
27.8633 0 0
27.8633 0 0
27.9602 0 0
27.9602 0 0
28.0571 0 0
28.0571 0 0
28.1541 0 0
28.1541 0 0
28.251 0 0
28.251 0 0
28.3479 0 0
28.3479 0 0
28.4448 0 0
28.4448 0 0
28.5417 0 0
28.5417 0 0
28.6387 0 0
28.6387 0 0
28.7356 0 0
28.7356 0 0
28.8325 0 0
28.8325 0 0
28.9294 0 0
28.9294 0 0
29.0264 0 0
29.0264 0 0
29.1233 0 0
29.1233 0 0
29.2202 0 0
29.2202 0 0
29.3171 0 0
29.3171 0 0
29.4141 0 0
29.4141 0 0
29.511 0 0
29.511 0 0
29.6079 0 0
29.6079 0 0
29.7048 0 0
29.7048 0 0
29.8018 0 0
29.8018 0 0
29.8987 0 0
29.8987 0 0
29.9956 0 0
29.9956 0 0
30.0925 0 0
30.0925 0 0
30.1895 0 0
30.1895 0 0
30.2864 0 0
30.2864 0 0
30.3833 0 0
30.3833 0 0
30.4802 0 0
30.4802 0 0
30.5771 0 0
30.5771 0 0
30.6741 0 0
30.6741 0 0
30.771 0 0
30.771 0 0
30.8679 0 0
30.8679 0 0
30.9648 0 0
30.9648 0 0
31.0618 0 0
31.0618 0 0
31.1587 0 0
31.1587 0 0
31.2556 0 0
31.2556 0 0
31.3525 0 0
31.3525 0 0
31.4495 0 0
31.4495 0 0
31.5464 0 0
31.5464 0 0
31.6433 0 0
31.6433 0 0
31.7402 0 0
31.7402 0 0
31.8372 0 0
31.8372 0 0
31.9341 0 0
31.9341 0 0
32.031 0 0
32.031 0 0
32.1279 0 0
32.1279 0 0
32.2249 0 0
32.2249 0 0
32.3218 0 0
32.3218 0 0
32.4187 0 0
32.4187 0 0
32.5156 0 0
32.5156 0 0
32.6125 0 0
32.6125 0 0
32.7095 0 0
32.7095 0 0
32.8064 0 0
32.8064 0 0
32.9033 0 0
32.9033 0 0
33.0002 0 0
33.0002 0 0
33.0972 0 0
33.0972 0 0
33.1941 0 0
33.1941 0 0
33.291 0 0
33.291 0 0
33.3879 0 0
33.3879 0 0
33.4849 0 0
33.4849 0 0
33.5818 0 0
33.5818 0 0
33.6787 0 0
33.6787 0 0
33.7756 0 0
33.7756 0 0
33.8726 0 0
33.8726 0 0
33.9695 0 0
33.9695 0 0
34.0664 0 0
34.0664 0 0
34.1633 0 0
34.1633 0 0
34.2603 0 0
34.2603 0 0
34.3572 0 0
34.3572 0 0
34.4541 0 0
34.4541 0 0
34.551 0 0
34.551 0 0
34.6479 0 0
34.6479 0 0
34.7449 0 0
34.7449 0 0
34.8418 0 0
34.8418 0 0
34.9387 0 0
34.9387 0 0
35.0356 0 0
35.0356 0 0
35.1326 0 0
35.1326 0 0
35.2295 0 0
35.2295 0 0
35.3264 0 0
35.3264 0 0
35.4233 0 0
35.4233 0 0
35.5203 0 0
35.5203 0 0
35.6172 0 0
35.6172 0 0
35.7141 0 0
35.7141 0 0
35.811 0 0
35.811 0 0
35.908 0 0
35.908 0 0
36.0049 0 0
36.0049 0 0
36.1018 0 0
36.1018 0 0
36.1987 0 0
36.1987 0 0
36.2957 0 0
36.2957 0 0
36.3926 0 0
36.3926 0 0
36.4895 0 0
36.4895 0 0
36.5864 0 0
36.5864 0 0
36.6833 0 0
36.6833 0 0
36.7803 0 0
36.7803 0 0
36.8772 0 0
36.8772 0 0
36.9741 0 0
36.9741 0 0
37.071 0 0
37.071 0 0
37.168 0 0
37.168 0 0
37.2649 0 0
37.2649 0 0
37.3618 0 0
37.3618 0 0
37.4587 0 0
37.4587 0 0
37.5557 0 0
37.5557 0 0
37.6526 0 0
37.6526 0 0
37.7495 0 0
37.7495 0 0
37.8464 0 0
37.8464 0 0
37.9434 0 0
37.9434 0 0
38.0403 0 0
38.0403 0 0
38.1372 0 0
38.1372 0 0
38.2341 0 0
38.2341 0 0
38.3311 0 0
38.3311 0 0
38.428 0 0
38.428 0 0
38.5249 0 0
38.5249 0 0
38.6218 0 0
38.6218 0 0
38.7188 0 0
38.7188 0 0
38.8157 0 0
38.8157 0 0
38.9126 0 0
38.9126 0 0
39.0095 0 0
39.0095 0 0
39.1064 0 0
39.1064 0 0
39.2034 0 0
39.2034 0 0
39.3003 0 0
39.3003 0 0
39.3972 0 0
39.3972 0 0
39.4941 0 0
39.4941 0 0
39.5911 0 0
39.5911 0 0
39.688 0 0
39.688 0 0
39.7849 0 0
39.7849 0 0
39.8818 0 0
39.8818 0 0
39.9788 0 0
39.9788 0 0
40.0757 0 0
40.0757 0 0
40.1726 0 0
40.1726 0 0
40.2695 0 0
40.2695 0 0
40.3665 0 0
40.3665 0 0
40.4634 0 0
40.4634 0 0
40.5603 0 0
40.5603 0 0
40.6572 0 0
40.6572 0 0
40.7542 0 0
40.7542 0 0
40.8511 0 0
40.8511 0 0
40.948 0 0
40.948 0 0
41.0449 0 0
41.0449 0 0
41.1418 0 0
41.1418 0 0
41.2388 0 0
41.2388 0 0
41.3357 0 0
41.3357 0 0
41.4326 0 0
41.4326 0 0
41.5295 0 0
41.5295 0 0
[...]
POINT_DATA 4096
SCALARS solution_0 double 1
LOOKUP_TABLE default
7.87802e+06 7.71479e+06 7.71479e+06 7.57717e+06 7.57717e+06 7.45995e+06 7.45995e+06 7.35916e+06 7.35916e+06 7.27172e+06 7.27172e+06 7.19518e+06 7.19518e+06 7.12763e+06 7.12763e+06 7.06752e+06 7.06752e+06 7.01359e+06 7.01359e+06 6.96484e+06 6.96484e+06 6.92042e+06 6.92042e+06 6.87965e+06 6.87965e+06 6.84194e+06 6.84194e+06 6.80683e+06 6.80683e+06 6.7739e+06 6.7739e+06 6.74283e+06 6.74283e+06 6.71331e+06 6.71331e+06 6.68511e+06 6.68511e+06 6.65802e+06 6.65802e+06 6.63186e+06 6.63186e+06 6.60648e+06 6.60648e+06 6.58175e+06 6.58175e+06 6.55756e+06 6.55756e+06 6.53381e+06 6.53381e+06 6.51042e+06 6.51042e+06 6.48732e+06 6.48732e+06 6.46445e+06 6.46445e+06 6.44175e+06 6.44175e+06 6.41917e+06 6.41917e+06 6.39669e+06 6.39669e+06 6.37426e+06 6.37426e+06 6.35186e+06 6.35186e+06 6.32946e+06 6.32946e+06 6.30704e+06 6.30704e+06 6.28458e+06 6.28458e+06 6.26208e+06 6.26208e+06 6.2395e+06 6.2395e+06 6.21686e+06 6.21686e+06 6.19414e+06 6.19414e+06 6.17132e+06 6.17132e+06 6.14841e+06 6.14841e+06 6.12541e+06 6.12541e+06 6.1023e+06 6.1023e+06 6.07909e+06 6.07909e+06 6.05578e+06 6.05578e+06 6.03236e+06 6.03236e+06 6.00884e+06 6.00884e+06 5.98522e+06 5.98522e+06 5.9615e+06 5.9615e+06 5.93768e+06 5.93768e+06 5.91376e+06 5.91376e+06 5.88974e+06 5.88974e+06 5.86564e+06 5.86564e+06 5.84145e+06 5.84145e+06 5.81717e+06 5.81717e+06 5.79282e+06 5.79282e+06 5.76838e+06 5.76838e+06 5.74387e+06 5.74387e+06 5.7193e+06 5.7193e+06 5.69465e+06 5.69465e+06 5.66994e+06 5.66994e+06 5.64518e+06 5.64518e+06 5.62036e+06 5.62036e+06 5.59549e+06 5.59549e+06 5.57058e+06 5.57058e+06 5.54562e+06 5.54562e+06 5.52062e+06 5.52062e+06 5.49559e+06 5.49559e+06 5.47053e+06 5.47053e+06 5.44544e+06 5.44544e+06 5.42033e+06 5.42033e+06 5.3952e+06 5.3952e+06 5.37006e+06 5.37006e+06 5.3449e+06 5.3449e+06 5.31974e+06 5.31974e+06 5.29457e+06 5.29457e+06 5.2694e+06 5.2694e+06 5.24424e+06 5.24424e+06 5.21907e+06 5.21907e+06 5.19392e+06 5.19392e+06 5.16878e+06 5.16878e+06 5.14365e+06 5.14365e+06 5.11855e+06 5.11855e+06 5.09346e+06 5.09346e+06 5.0684e+06 5.0684e+06 5.04336e+06 5.04336e+06 5.01836e+06 5.01836e+06 4.99338e+06 4.99338e+06 4.96844e+06 4.96844e+06 4.94354e+06 4.94354e+06 4.91868e+06 4.91868e+06 4.89386e+06 4.89386e+06 4.86909e+06 4.86909e+06 4.84436e+06 4.84436e+06 4.81968e+06 4.81968e+06 4.79506e+06 4.79506e+06 4.77048e+06 4.77048e+06 4.74596e+06 4.74596e+06 4.7215e+06 4.7215e+06 4.6971e+06 4.6971e+06 4.67276e+06 4.67276e+06 4.64848e+06 4.64848e+06 4.62427e+06 4.62427e+06 4.60012e+06 4.60012e+06 4.57604e+06 4.57604e+06 4.55203e+06 4.55203e+06 4.52809e+06 4.52809e+06 4.50422e+06 4.50422e+06 4.48043e+06 4.48043e+06 4.45671e+06 4.45671e+06 4.43307e+06 4.43307e+06 4.40951e+06 4.40951e+06 4.38602e+06 4.38602e+06 4.36262e+06 4.36262e+06 4.33929e+06 4.33929e+06 4.31605e+06 4.31605e+06 4.29289e+06 4.29289e+06 4.26982e+06 4.26982e+06 4.24683e+06 4.24683e+06 4.22392e+06 4.22392e+06 4.20111e+06 4.20111e+06 4.17838e+06 4.17838e+06 4.15574e+06 4.15574e+06 4.13319e+06 4.13319e+06 4.11073e+06 4.11073e+06 4.08836e+06 4.08836e+06 4.06608e+06 4.06608e+06 4.04389e+06 4.04389e+06 4.0218e+06 4.0218e+06 3.9998e+06 3.9998e+06 3.97789e+06 3.97789e+06 3.95608e+06 3.95608e+06 3.93436e+06 3.93436e+06 3.91274e+06 3.91274e+06 3.89121e+06 3.89121e+06 3.86978e+06 3.86978e+06 3.84845e+06 3.84845e+06 3.82721e+06 3.82721e+06 3.80607e+06 3.80607e+06 3.78502e+06 3.78502e+06 3.76408e+06 3.76408e+06 3.74323e+06 3.74323e+06 3.72248e+06 3.72248e+06 3.70182e+06 3.70182e+06 3.68127e+06 3.68127e+06 3.66081e+06 3.66081e+06 3.64046e+06 3.64046e+06 3.6202e+06 3.6202e+06 3.60004e+06 3.60004e+06 3.57998e+06 3.57998e+06 3.56002e+06 3.56002e+06 3.54015e+06 3.54015e+06 3.52039e+06 3.52039e+06 3.50073e+06 3.50073e+06 3.48116e+06 3.48116e+06 3.4617e+06 3.4617e+06 3.44233e+06 3.44233e+06 3.42306e+06 3.42306e+06 3.40389e+06 3.40389e+06 3.38482e+06 3.38482e+06 3.36585e+06 3.36585e+06 3.34698e+06 3.34698e+06 3.3282e+06 3.3282e+06 3.30953e+06 3.30953e+06 3.29095e+06 3.29095e+06 3.27247e+06 3.27247e+06 3.25409e+06 3.25409e+06 3.23581e+06 3.23581e+06 3.21763e+06 3.21763e+06 3.19954e+06 3.19954e+06 3.18155e+06 3.18155e+06 3.16366e+06 3.16366e+06 3.14586e+06 3.14586e+06 3.12816e+06 3.12816e+06 3.11056e+06 3.11056e+06 3.09305e+06 3.09305e+06 3.07564e+06 3.07564e+06 3.05832e+06 3.05832e+06 3.0411e+06 3.0411e+06 3.02398e+06 3.02398e+06 3.00695e+06 3.00695e+06 2.99001e+06 2.99001e+06 2.97317e+06 2.97317e+06 2.95642e+06 2.95642e+06 2.93977e+06 2.93977e+06 2.92321e+06 2.92321e+06 2.90674e+06 2.90674e+06 2.89037e+06 2.89037e+06 2.87409e+06 2.87409e+06 2.8579e+06 2.8579e+06 2.8418e+06 2.8418e+06 2.82579e+06 2.82579e+06 2.80988e+06 2.80988e+06 2.79405e+06 2.79405e+06 2.77832e+06 2.77832e+06 2.76267e+06 2.76267e+06 2.74712e+06 2.74712e+06 2.73165e+06 2.73165e+06 2.71628e+06 2.71628e+06 2.70099e+06 2.70099e+06 2.68579e+06 2.68579e+06 2.67068e+06 2.67068e+06 2.65565e+06 2.65565e+06 2.64071e+06 2.64071e+06 2.62586e+06 2.62586e+06 2.6111e+06 2.6111e+06 2.59642e+06 2.59642e+06 2.58182e+06 2.58182e+06 2.56731e+06 2.56731e+06 2.55289e+06 2.55289e+06 2.53855e+06 2.53855e+06 2.52429e+06 2.52429e+06 2.51012e+06 2.51012e+06 2.49603e+06 2.49603e+06 2.48202e+06 2.48202e+06 2.4681e+06 2.4681e+06 2.45426e+06 2.45426e+06 2.4405e+06 2.4405e+06 2.42682e+06 2.42682e+06 2.41322e+06 2.41322e+06 2.3997e+06 2.3997e+06 2.38626e+06 2.38626e+06 2.3729e+06 2.3729e+06 2.35962e+06 2.35962e+06 2.34641e+06 2.34641e+06 2.33329e+06 2.33329e+06 2.32024e+06 2.32024e+06 2.30727e+06 2.30727e+06 2.29438e+06 2.29438e+06 2.28157e+06 2.28157e+06 2.26883e+06 2.26883e+06 2.25616e+06 2.25616e+06 2.24357e+06 2.24357e+06 2.23106e+06 2.23106e+06 2.21862e+06 2.21862e+06 2.20626e+06 2.20626e+06 2.19396e+06 2.19396e+06 2.18175e+06 2.18175e+06 2.1696e+06 2.1696e+06 2.15753e+06 2.15753e+06 2.14553e+06 2.14553e+06 2.1336e+06 2.1336e+06 2.12174e+06 2.12174e+06 2.10995e+06 2.10995e+06 2.09824e+06 2.09824e+06 2.08659e+06 2.08659e+06 2.07501e+06 2.07501e+06 2.0635e+06 2.0635e+06 2.05206e+06 2.05206e+06 2.04069e+06 2.04069e+06 2.02939e+06 2.02939e+06 2.01816e+06 2.01816e+06 2.00699e+06 2.00699e+06 1.99589e+06 1.99589e+06 1.98485e+06 1.98485e+06 1.97388e+06 1.97388e+06 1.96298e+06 1.96298e+06 1.95214e+06 1.95214e+06 1.94137e+06 1.94137e+06 1.93066e+06 1.93066e+06 1.92002e+06 1.92002e+06 1.90943e+06 1.90943e+06 1.89892e+06 1.89892e+06 1.88846e+06 1.88846e+06 1.87807e+06 1.87807e+06 1.86774e+06 1.86774e+06 1.85747e+06 1.85747e+06 1.84726e+06 1.84726e+06 1.83712e+06 1.83712e+06 1.82703e+06 1.82703e+06 1.81701e+06 1.81701e+06 1.80704e+06 1.80704e+06 1.79714e+06 1.79714e+06 1.78729e+06 1.78729e+06 1.77751e+06 1.77751e+06 1.76778e+06 1.76778e+06 1.75811e+06 1.75811e+06 1.74849e+06 1.74849e+06 1.73894e+06 1.73894e+06 1.72944e+06 1.72944e+06 1.72e+06 1.72e+06 1.71061e+06 1.71061e+06 1.70128e+06 1.70128e+06 1.69201e+06 1.69201e+06 1.68279e+06 1.68279e+06 1.67362e+06 1.67362e+06 1.66451e+06 1.66451e+06 1.65546e+06 1.65546e+06 1.64645e+06 1.64645e+06 1.63751e+06 1.63751e+06 1.62861e+06 1.62861e+06 1.61977e+06 1.61977e+06 1.61098e+06 1.61098e+06 1.60224e+06 1.60224e+06 1.59356e+06 1.59356e+06 1.58492e+06 1.58492e+06 1.57634e+06 1.57634e+06 1.56781e+06 1.56781e+06 1.55933e+06 1.55933e+06 1.55089e+06 1.55089e+06 1.54251e+06 1.54251e+06 1.53418e+06 1.53418e+06 1.5259e+06 1.5259e+06 1.51766e+06 1.51766e+06 1.50948e+06 1.50948e+06 1.50134e+06 1.50134e+06 1.49325e+06 1.49325e+06 1.48521e+06 1.48521e+06 1.47722e+06 1.47722e+06 1.46927e+06 1.46927e+06 1.46137e+06 1.46137e+06 1.45352e+06 1.45352e+06 1.44571e+06 1.44571e+06 1.43795e+06 1.43795e+06 1.43023e+06 1.43023e+06 1.42256e+06 1.42256e+06 1.41493e+06 1.41493e+06 1.40735e+06 1.40735e+06 1.39982e+06 1.39982e+06 1.39232e+06 1.39232e+06 1.38487e+06 1.38487e+06 1.37747e+06 1.37747e+06 1.37011e+06 1.37011e+06 1.36279e+06 1.36279e+06 1.35551e+06 1.35551e+06 1.34827e+06 1.34827e+06 1.34108e+06 1.34108e+06 1.33393e+06 1.33393e+06 1.32682e+06 1.32682e+06 1.31976e+06 1.31976e+06 1.31273e+06 1.31273e+06 1.30574e+06 1.30574e+06 1.2988e+06 1.2988e+06 1.29189e+06 1.29189e+06 1.28503e+06 1.28503e+06 1.2782e+06 1.2782e+06 1.27142e+06 1.27142e+06 1.26467e+06 1.26467e+06 1.25796e+06 1.25796e+06 1.25129e+06 1.25129e+06 1.24466e+06 1.24466e+06 1.23807e+06 1.23807e+06 1.23152e+06 1.23152e+06 1.225e+06 1.225e+06 1.21852e+06 1.21852e+06 1.21208e+06 1.21208e+06 1.20567e+06 1.20567e+06 1.1993e+06 1.1993e+06 1.19297e+06 1.19297e+06 1.18667e+06 1.18667e+06 1.18041e+06 1.18041e+06 1.17419e+06 1.17419e+06 1.168e+06 1.168e+06 1.16185e+06 1.16185e+06 1.15573e+06 1.15573e+06 1.14964e+06 1.14964e+06 1.1436e+06 1.1436e+06 1.13758e+06 1.13758e+06 1.1316e+06 1.1316e+06 1.12565e+06 1.12565e+06 1.11974e+06 1.11974e+06 1.11386e+06 1.11386e+06 1.10801e+06 1.10801e+06 1.1022e+06 1.1022e+06 1.09642e+06 1.09642e+06 1.09067e+06 1.09067e+06 1.08496e+06 1.08496e+06 1.07927e+06 1.07927e+06 1.07362e+06 1.07362e+06 1.068e+06 1.068e+06 1.06241e+06 1.06241e+06 1.05686e+06 1.05686e+06 1.05133e+06 1.05133e+06 1.04584e+06 1.04584e+06 1.04037e+06 1.04037e+06 1.03494e+06 1.03494e+06 1.02953e+06 1.02953e+06 1.02416e+06 1.02416e+06 1.01882e+06 1.01882e+06 1.01351e+06 1.01351e+06 1.00822e+06 1.00822e+06 1.00297e+06 1.00297e+06 997741 997741 992545 992545 987377 987377 982238 982238 977127 977127 972045 972045 966990 966990 961964 961964 956965 956965 951993 951993 947049 947049 942132 942132 937242 937242 932379 932379 927542 927542 922732 922732 917948 917948 913190 913190 908459 908459 903752 903752 899072 899072 894417 894417 889787 889787 885182 885182 880602 880602 876047 876047 871517 871517 867011 867011 862529 862529 858072 858072 853638 853638 849228 849228 844842 844842 840480 840480 836140 836140 831825 831825 827532 827532 823262 823262 819015 819015 814790 814790 810588 810588 806409 806409 802251 802251 798116 798116 794002 794002 789911 789911 785841 785841 781792 781792 777765 777765 773759 773759 769774 769774 765810 765810 761867 761867 757945 757945 754043 754043 750162 750162 746301 746301 742460 742460 738639 738639 734838 734838 731057 731057 727296 727296 723554 723554 719832 719832 716128 716128 712445 712445 708780 708780 705134 705134 701507 701507 697898 697898 694308 694308 690737 690737 687184 687184 683650 683650 680133 680133 676634 676634 673154 673154 669691 669691 666246 666246 662818 662818 659408 659408 656015 656015 652639 652639 649281 649281 645939 645939 642615 642615 639307 639307 636016 636016 632742 632742 629484 629484 626243 626243 623018 623018 619809 619809 616616 616616 613439 613439 610278 610278 607133 607133 604004 604004 600890 600890 597792 597792 594709 594709 591642 591642 588590 588590 585553 585553 582531 582531 579524 579524 576532 576532 573554 573554 570592 570592 567644 567644 564710 564710 561791 561791 558886 558886 555996 555996 553119 553119 550257 550257 547409 547409 544575 544575 541754 541754 538947 538947 536154 536154 533375 533375 530609 530609 527856 527856 525117 525117 522391 522391 519678 519678 516978 516978 514292 514292 511618 511618 508957 508957 506309 506309 503674 503674 501051 501051 498441 498441 495843 495843 493258 493258 490685 490685 488124 488124 485576 485576 483040 483040 480516 480516 478003 478003 475503 475503 473015 473015 470538 470538 468073 468073 465620 465620 463178 463178 460748 460748 458329 458329 455921 455921 453525 453525 451140 451140 448766 448766 446404 446404 444052 444052 441712 441712 439382 439382 437063 437063 434755 434755 432458 432458 430171 430171 427895 427895 425630 425630 423375 423375 421130 421130 418896 418896 416672 416672 414458 414458 412255 412255 410061 410061 407878 407878 405705 405705 403541 403541 401388 401388 399244 399244 397111 397111 394987 394987 392872 392872 390767 390767 388672 388672 386587 386587 384510 384510 382444 382444 380386 380386 378338 378338 376299 376299 374269 374269 372249 372249 370237 370237 368235 368235 366242 366242 364257 364257 362282 362282 360315 360315 358357 358357 356408 356408 354467 354467 352535 352535 350612 350612 348698 348698 346791 346791 344894 344894 343004 343004 341123 341123 339251 339251 337387 337387 335530 335530 333683 333683 331843 331843 330011 330011 328187 328187 326372 326372 324564 324564 322764 322764 320973 320973 319189 319189 317412 317412 315644 315644 313883 313883 312130 312130 310385 310385 308647 308647 306916 306916 305193 305193 303478 303478 301770 301770 300070 300070 298376 298376 296690 296690 295012 295012 293340 293340 291676 291676 290019 290019 288369 288369 286726 286726 285090 285090 283461 283461 281839 281839 280224 280224 278616 278616 277015 277015 275420 275420 273833 273833 272252 272252 270677 270677 269110 269110 267549 267549 265994 265994 264447 264447 262905 262905 261371 261371 259842 259842 258321 258321 256805 256805 255296 255296 253793 253793 252297 252297 250807 250807 249323 249323 247845 247845 246373 246373 244908 244908 243448 243448 241995 241995 240548 240548 239107 239107 237671 237671 236242 236242 234819 234819 233401 233401 231990 231990 230584 230584 229184 229184 227790 227790 226401 226401 225018 225018 223641 223641 222270 222270 220904 220904 219544 219544 218189 218189 216840 216840 215496 215496 214158 214158 212825 212825 211498 211498 210176 210176 208860 208860 207548 207548 206243 206243 204942 204942 203647 203647 202357 202357 201072 201072 199792 199792 198518 198518 197248 197248 195984 195984 194725 194725 193471 193471 192222 192222 190978 190978 189739 189739 188505 188505 187276 187276 186051 186051 184832 184832 183617 183617 182408 182408 181203 181203 180003 180003 178808 178808 177617 177617 176431 176431 175250 175250 174074 174074 172902 172902 171735 171735 170572 170572 169414 169414 168261 168261 167112 167112 165968 165968 164828 164828 163692 163692 162561 162561 161435 161435 160313 160313 159195 159195 158082 158082 156973 156973 155868 155868 154768 154768 153672 153672 152580 152580 151493 151493 150409 150409 149330 149330 148255 148255 147184 147184 146118 146118 145055 145055 143997 143997 142943 142943 141892 141892 140846 140846 139804 139804 138766 138766 137732 137732 136702 136702 135675 135675 134653 134653 133635 133635 132620 132620 131610 131610 130603 130603 129600 129600 128601 128601 127606 127606 126614 126614 125626 125626 124642 124642 123662 123662 122686 122686 121713 121713 120744 120744 119778 119778 118817 118817 117859 117859 116904 116904 115953 115953 115006 115006 114062 114062 113122 113122 112185 112185 111252 111252 110322 110322 109396 109396 108473 108473 107554 107554 106638 106638 105726 105726 104817 104817 103911 103911 103009 103009 102110 102110 101215 101215 100323 100323 99433.8 99433.8 98548.3 98548.3 97666 97666 96787.1 96787.1 95911.3 95911.3 95038.9 95038.9 94169.6 94169.6 93303.6 93303.6 92440.7 92440.7 91581.1 91581.1 90724.6 90724.6 89871.3 89871.3 89021.1 89021.1 88174.1 88174.1 87330.1 87330.1 86489.3 86489.3 85651.6 85651.6 84816.9 84816.9 83985.3 83985.3 83156.7 83156.7 82331.2 82331.2 81508.7 81508.7 80689.2 80689.2 79872.6 79872.6 79059.1 79059.1 78248.5 78248.5 77440.9 77440.9 76636.3 76636.3 75834.5 75834.5 75035.7 75035.7 74239.8 74239.8 73446.7 73446.7 72656.6 72656.6 71869.3 71869.3 71084.8 71084.8 70303.2 70303.2 69524.4 69524.4 68748.5 68748.5 67975.3 67975.3 67204.9 67204.9 66437.3 66437.3 65672.5 65672.5 64910.4 64910.4 64151.1 64151.1 63394.5 63394.5 62640.6 62640.6 61889.4 61889.4 61141 61141 60395.2 60395.2 59652 59652 58911.6 58911.6 58173.8 58173.8 57438.6 57438.6 56706 56706 55976.1 55976.1 55248.8 55248.8 54524 54524 53801.9 53801.9 53082.3 53082.3 52365.2 52365.2 51650.8 51650.8 50938.8 50938.8 50229.4 50229.4 49522.5 49522.5 48818.1 48818.1 48116.2 48116.2 47416.8 47416.8 46719.9 46719.9 46025.4 46025.4 45333.4 45333.4 44643.8 44643.8 43956.7 43956.7 43271.9 43271.9 42589.6 42589.6 41909.7 41909.7 41232.2 41232.2 40557.1 40557.1 39884.3 39884.3 39213.9 39213.9 38545.9 38545.9 37880.2 37880.2 37216.8 37216.8 36555.8 36555.8 35897 35897 35240.6 35240.6 34586.5 34586.5 33934.6 33934.6 33285 33285 32637.7 32637.7 31992.7 31992.7 31349.9 31349.9 30709.3 30709.3 30071 30071 29434.8 29434.8 28800.9 28800.9 28169.2 28169.2 27539.7 27539.7 26912.4 26912.4 26287.2 26287.2 25664.2 25664.2 25043.4 25043.4 24424.7 24424.7 23808.1 23808.1 23193.7 23193.7 22581.4 22581.4 21971.2 21971.2 21363.1 21363.1 20757.1 20757.1 20153.2 20153.2 19551.4 19551.4 18951.7 18951.7 18354 18354 17758.3 17758.3 17164.7 17164.7 16573.2 16573.2 15983.6 15983.6 15396.1 15396.1 14810.6 14810.6 14227.1 14227.1 13645.6 13645.6 13066.1 13066.1 12488.6 12488.6 11913.1 11913.1 11339.5 11339.5 10767.8 10767.8 10198.1 10198.1 9630.38 9630.38 9064.56 9064.56 8500.67 8500.67 7938.7 7938.7 7378.63 7378.63 6820.47 6820.47 6264.2 6264.2 5709.82 5709.82 5157.32 5157.32 4606.69 4606.69 4057.92 4057.92 3511.02 3511.02 2965.96 2965.96 2422.74 2422.74 1881.36 1881.36 1341.81 1341.81 804.077 804.077 268.159 268.159 -265.952 -265.952 -798.264 -798.264 -1328.78 -1328.78 -1857.52 -1857.52 -2384.48 -2384.48 -2909.66 -2909.66 -3433.08 -3433.08 -3954.74 -3954.74 -4474.66 -4474.66 -4992.83 -4992.83 -5509.26 -5509.26 -6023.96 -6023.96 -6536.94 -6536.94 -7048.2 -7048.2 -7557.75 -7557.75 -8065.6 -8065.6 -8571.76 -8571.76 -9076.22 -9076.22 -9579 -9579 -10080.1 -10080.1 -10579.5 -10579.5 -11077.3 -11077.3 -11573.4 -11573.4 -12067.9 -12067.9 -12560.7 -12560.7 -13051.8 -13051.8 -13541.4 -13541.4 -14029.3 -14029.3 -14515.6 -14515.6 -15000.3 -15000.3 -15483.4 -15483.4 -15964.8 -15964.8 -16444.7 -16444.7 -16923 -16923 -17399.7 -17399.7 -17874.8 -17874.8 -18348.4 -18348.4 -18820.4 -18820.4 -19290.8 -19290.8 -19759.7 -19759.7 -20227.1 -20227.1 -20692.9 -20692.9 -21157.1 -21157.1 -21619.8 -21619.8 -22081.1 -22081.1 -22540.7 -22540.7 -22998.9 -22998.9 -23455.6 -23455.6 -23910.8 -23910.8 -24364.4 -24364.4 -24816.6 -24816.6 -25267.3 -25267.3 -25716.6 -25716.6 -26164.3 -26164.3 -26610.6 -26610.6 -27055.4 -27055.4 -27498.8 -27498.8 -27940.7 -27940.7 -28381.2 -28381.2 -28820.2 -28820.2 -29257.8 -29257.8 -29694 -29694 -30128.8 -30128.8 -30562.1 -30562.1 -30994 -30994 -31424.5 -31424.5 -31853.6 -31853.6 -32281.4 -32281.4 -32707.7 -32707.7 -33132.6 -33132.6 -33556.2 -33556.2 -33978.4 -33978.4 -34399.2 -34399.2 -34818.6 -34818.6 -35236.7 -35236.7 -35653.4 -35653.4 -36068.8 -36068.8 -36482.8 -36482.8 -36895.5 -36895.5 -37306.9 -37306.9 -37716.9 -37716.9 -38125.6 -38125.6 -38532.9 -38532.9 -38939 -38939 -39343.7 -39343.7 -39747.2 -39747.2 -40149.3 -40149.3 -40550.1 -40550.1 -40949.7 -40949.7 -41347.9 -41347.9 -41744.9 -41744.9 -42140.5 -42140.5 -42534.9 -42534.9 -42928.1 -42928.1 -43319.9 -43319.9 -43710.5 -43710.5 -44099.8 -44099.8 -44487.9 -44487.9 -44874.8 -44874.8 -45260.3 -45260.3 -45644.7 -45644.7 -46027.8 -46027.8 -46409.6 -46409.6 -46790.3 -46790.3 -47169.7 -47169.7 -47547.9 -47547.9 -47924.8 -47924.8 -48300.6 -48300.6 -48675.2 -48675.2 -49048.5 -49048.5 -49420.7 -49420.7 -49791.7 -49791.7 -50161.4 -50161.4 -50530 -50530 -50897.5 -50897.5 -51263.7 -51263.7 -51628.8 -51628.8 -51992.7 -51992.7 -52355.5 -52355.5 -52717.1 -52717.1 -53077.5 -53077.5 -53436.9 -53436.9 -53795 -53795 -54152.1 -54152.1 -54508 -54508 -54862.8 -54862.8 -55216.4 -55216.4 -55569 -55569 -55920.4 -55920.4 -56270.8 -56270.8 -56620 -56620 -56968.1 -56968.1 -57315.1 -57315.1 -57661.1 -57661.1 -58005.9 -58005.9 -58349.7 -58349.7 -58692.4 -58692.4 -59034 -59034 -59374.5 -59374.5 -59714 -59714 -60052.4 -60052.4 -60389.7 -60389.7 -60726 -60726 -61061.2 -61061.2 -61395.4 -61395.4 -61728.5 -61728.5 -62060.6 -62060.6 -62391.6 -62391.6 -62721.6 -62721.6 -63050.5 -63050.5 -63378.4 -63378.4 -63705.3 -63705.3 -64031.1 -64031.1 -64355.9 -64355.9 -64679.7 -64679.7 -65002.5 -65002.5 -65324.2 -65324.2 -65645 -65645 -65964.7 -65964.7 -66283.4 -66283.4 -66601.1 -66601.1 -66917.8 -66917.8 -67233.6 -67233.6 -67548.3 -67548.3 -67862 -67862 -68174.8 -68174.8 -68486.5 -68486.5 -68797.3 -68797.3 -69107.1 -69107.1 -69416 -69416 -69723.8 -69723.8 -70030.7 -70030.7 -70336.7 -70336.7 -70641.6 -70641.6 -70945.7 -70945.7 -71248.7 -71248.7 -71550.9 -71550.9 -