# vtk DataFile Version 3.0
#This file was generated by the deal.II library on 2020/9/6 at 3:03:41
ASCII
DATASET UNSTRUCTURED_GRID

POINTS 4096 double
1.5 0 0
1.59692 0 0
1.59692 0 0
1.69385 0 0
1.69385 0 0
1.79077 0 0
1.79077 0 0
1.8877 0 0
1.8877 0 0
1.98462 0 0
1.98462 0 0
2.08154 0 0
2.08154 0 0
2.17847 0 0
2.17847 0 0
2.27539 0 0
2.27539 0 0
2.37231 0 0
2.37231 0 0
2.46924 0 0
2.46924 0 0
2.56616 0 0
2.56616 0 0
2.66309 0 0
2.66309 0 0
2.76001 0 0
2.76001 0 0
2.85693 0 0
2.85693 0 0
2.95386 0 0
2.95386 0 0
3.05078 0 0
3.05078 0 0
3.14771 0 0
3.14771 0 0
3.24463 0 0
3.24463 0 0
3.34155 0 0
3.34155 0 0
3.43848 0 0
3.43848 0 0
3.5354 0 0
3.5354 0 0
3.63232 0 0
3.63232 0 0
3.72925 0 0
3.72925 0 0
3.82617 0 0
3.82617 0 0
3.9231 0 0
3.9231 0 0
4.02002 0 0
4.02002 0 0
4.11694 0 0
4.11694 0 0
4.21387 0 0
4.21387 0 0
4.31079 0 0
4.31079 0 0
4.40771 0 0
4.40771 0 0
4.50464 0 0
4.50464 0 0
4.60156 0 0
4.60156 0 0
4.69849 0 0
4.69849 0 0
4.79541 0 0
4.79541 0 0
4.89233 0 0
4.89233 0 0
4.98926 0 0
4.98926 0 0
5.08618 0 0
5.08618 0 0
5.18311 0 0
5.18311 0 0
5.28003 0 0
5.28003 0 0
5.37695 0 0
5.37695 0 0
5.47388 0 0
5.47388 0 0
5.5708 0 0
5.5708 0 0
5.66772 0 0
5.66772 0 0
5.76465 0 0
5.76465 0 0
5.86157 0 0
5.86157 0 0
5.9585 0 0
5.9585 0 0
6.05542 0 0
6.05542 0 0
6.15234 0 0
6.15234 0 0
6.24927 0 0
6.24927 0 0
6.34619 0 0
6.34619 0 0
6.44312 0 0
6.44312 0 0
6.54004 0 0
6.54004 0 0
6.63696 0 0
6.63696 0 0
6.73389 0 0
6.73389 0 0
6.83081 0 0
6.83081 0 0
6.92773 0 0
6.92773 0 0
7.02466 0 0
7.02466 0 0
7.12158 0 0
7.12158 0 0
7.21851 0 0
7.21851 0 0
7.31543 0 0
7.31543 0 0
7.41235 0 0
7.41235 0 0
7.50928 0 0
7.50928 0 0
7.6062 0 0
7.6062 0 0
7.70312 0 0
7.70312 0 0
7.80005 0 0
7.80005 0 0
7.89697 0 0
7.89697 0 0
7.9939 0 0
7.9939 0 0
8.09082 0 0
8.09082 0 0
8.18774 0 0
8.18774 0 0
8.28467 0 0
8.28467 0 0
8.38159 0 0
8.38159 0 0
8.47852 0 0
8.47852 0 0
8.57544 0 0
8.57544 0 0
8.67236 0 0
8.67236 0 0
8.76929 0 0
8.76929 0 0
8.86621 0 0
8.86621 0 0
8.96313 0 0
8.96313 0 0
9.06006 0 0
9.06006 0 0
9.15698 0 0
9.15698 0 0
9.25391 0 0
9.25391 0 0
9.35083 0 0
9.35083 0 0
9.44775 0 0
9.44775 0 0
9.54468 0 0
9.54468 0 0
9.6416 0 0
9.6416 0 0
9.73853 0 0
9.73853 0 0
9.83545 0 0
9.83545 0 0
9.93237 0 0
9.93237 0 0
10.0293 0 0
10.0293 0 0
10.1262 0 0
10.1262 0 0
10.2231 0 0
10.2231 0 0
10.3201 0 0
10.3201 0 0
10.417 0 0
10.417 0 0
10.5139 0 0
10.5139 0 0
10.6108 0 0
10.6108 0 0
10.7078 0 0
10.7078 0 0
10.8047 0 0
10.8047 0 0
10.9016 0 0
10.9016 0 0
10.9985 0 0
10.9985 0 0
11.0955 0 0
11.0955 0 0
11.1924 0 0
11.1924 0 0
11.2893 0 0
11.2893 0 0
11.3862 0 0
11.3862 0 0
11.4832 0 0
11.4832 0 0
11.5801 0 0
11.5801 0 0
11.677 0 0
11.677 0 0
11.7739 0 0
11.7739 0 0
11.8708 0 0
11.8708 0 0
11.9678 0 0
11.9678 0 0
12.0647 0 0
12.0647 0 0
12.1616 0 0
12.1616 0 0
12.2585 0 0
12.2585 0 0
12.3555 0 0
12.3555 0 0
12.4524 0 0
12.4524 0 0
12.5493 0 0
12.5493 0 0
12.6462 0 0
12.6462 0 0
12.7432 0 0
12.7432 0 0
12.8401 0 0
12.8401 0 0
12.937 0 0
12.937 0 0
13.0339 0 0
13.0339 0 0
13.1309 0 0
13.1309 0 0
13.2278 0 0
13.2278 0 0
13.3247 0 0
13.3247 0 0
13.4216 0 0
13.4216 0 0
13.5186 0 0
13.5186 0 0
13.6155 0 0
13.6155 0 0
13.7124 0 0
13.7124 0 0
13.8093 0 0
13.8093 0 0
13.9062 0 0
13.9062 0 0
14.0032 0 0
14.0032 0 0
14.1001 0 0
14.1001 0 0
14.197 0 0
14.197 0 0
14.2939 0 0
14.2939 0 0
14.3909 0 0
14.3909 0 0
14.4878 0 0
14.4878 0 0
14.5847 0 0
14.5847 0 0
14.6816 0 0
14.6816 0 0
14.7786 0 0
14.7786 0 0
14.8755 0 0
14.8755 0 0
14.9724 0 0
14.9724 0 0
15.0693 0 0
15.0693 0 0
15.1663 0 0
15.1663 0 0
15.2632 0 0
15.2632 0 0
15.3601 0 0
15.3601 0 0
15.457 0 0
15.457 0 0
15.554 0 0
15.554 0 0
15.6509 0 0
15.6509 0 0
15.7478 0 0
15.7478 0 0
15.8447 0 0
15.8447 0 0
15.9417 0 0
15.9417 0 0
16.0386 0 0
16.0386 0 0
16.1355 0 0
16.1355 0 0
16.2324 0 0
16.2324 0 0
16.3293 0 0
16.3293 0 0
16.4263 0 0
16.4263 0 0
16.5232 0 0
16.5232 0 0
16.6201 0 0
16.6201 0 0
16.717 0 0
16.717 0 0
16.814 0 0
16.814 0 0
16.9109 0 0
16.9109 0 0
17.0078 0 0
17.0078 0 0
17.1047 0 0
17.1047 0 0
17.2017 0 0
17.2017 0 0
17.2986 0 0
17.2986 0 0
17.3955 0 0
17.3955 0 0
17.4924 0 0
17.4924 0 0
17.5894 0 0
17.5894 0 0
17.6863 0 0
17.6863 0 0
17.7832 0 0
17.7832 0 0
17.8801 0 0
17.8801 0 0
17.9771 0 0
17.9771 0 0
18.074 0 0
18.074 0 0
18.1709 0 0
18.1709 0 0
18.2678 0 0
18.2678 0 0
18.3647 0 0
18.3647 0 0
18.4617 0 0
18.4617 0 0
18.5586 0 0
18.5586 0 0
18.6555 0 0
18.6555 0 0
18.7524 0 0
18.7524 0 0
18.8494 0 0
18.8494 0 0
18.9463 0 0
18.9463 0 0
19.0432 0 0
19.0432 0 0
19.1401 0 0
19.1401 0 0
19.2371 0 0
19.2371 0 0
19.334 0 0
19.334 0 0
19.4309 0 0
19.4309 0 0
19.5278 0 0
19.5278 0 0
19.6248 0 0
19.6248 0 0
19.7217 0 0
19.7217 0 0
19.8186 0 0
19.8186 0 0
19.9155 0 0
19.9155 0 0
20.0125 0 0
20.0125 0 0
20.1094 0 0
20.1094 0 0
20.2063 0 0
20.2063 0 0
20.3032 0 0
20.3032 0 0
20.4001 0 0
20.4001 0 0
20.4971 0 0
20.4971 0 0
20.594 0 0
20.594 0 0
20.6909 0 0
20.6909 0 0
20.7878 0 0
20.7878 0 0
20.8848 0 0
20.8848 0 0
20.9817 0 0
20.9817 0 0
21.0786 0 0
21.0786 0 0
21.1755 0 0
21.1755 0 0
21.2725 0 0
21.2725 0 0
21.3694 0 0
21.3694 0 0
21.4663 0 0
21.4663 0 0
21.5632 0 0
21.5632 0 0
21.6602 0 0
21.6602 0 0
21.7571 0 0
21.7571 0 0
21.854 0 0
21.854 0 0
21.9509 0 0
21.9509 0 0
22.0479 0 0
22.0479 0 0
22.1448 0 0
22.1448 0 0
22.2417 0 0
22.2417 0 0
22.3386 0 0
22.3386 0 0
22.4355 0 0
22.4355 0 0
22.5325 0 0
22.5325 0 0
22.6294 0 0
22.6294 0 0
22.7263 0 0
22.7263 0 0
22.8232 0 0
22.8232 0 0
22.9202 0 0
22.9202 0 0
23.0171 0 0
23.0171 0 0
23.114 0 0
23.114 0 0
23.2109 0 0
23.2109 0 0
23.3079 0 0
23.3079 0 0
23.4048 0 0
23.4048 0 0
23.5017 0 0
23.5017 0 0
23.5986 0 0
23.5986 0 0
23.6956 0 0
23.6956 0 0
23.7925 0 0
23.7925 0 0
23.8894 0 0
23.8894 0 0
23.9863 0 0
23.9863 0 0
24.0833 0 0
24.0833 0 0
24.1802 0 0
24.1802 0 0
24.2771 0 0
24.2771 0 0
24.374 0 0
24.374 0 0
24.4709 0 0
24.4709 0 0
24.5679 0 0
24.5679 0 0
24.6648 0 0
24.6648 0 0
24.7617 0 0
24.7617 0 0
24.8586 0 0
24.8586 0 0
24.9556 0 0
24.9556 0 0
25.0525 0 0
25.0525 0 0
25.1494 0 0
25.1494 0 0
25.2463 0 0
25.2463 0 0
25.3433 0 0
25.3433 0 0
25.4402 0 0
25.4402 0 0
25.5371 0 0
25.5371 0 0
25.634 0 0
25.634 0 0
25.731 0 0
25.731 0 0
25.8279 0 0
25.8279 0 0
25.9248 0 0
25.9248 0 0
26.0217 0 0
26.0217 0 0
26.1187 0 0
26.1187 0 0
26.2156 0 0
26.2156 0 0
26.3125 0 0
26.3125 0 0
26.4094 0 0
26.4094 0 0
26.5063 0 0
26.5063 0 0
26.6033 0 0
26.6033 0 0
26.7002 0 0
26.7002 0 0
26.7971 0 0
26.7971 0 0
26.894 0 0
26.894 0 0
26.991 0 0
26.991 0 0
27.0879 0 0
27.0879 0 0
27.1848 0 0
27.1848 0 0
27.2817 0 0
27.2817 0 0
27.3787 0 0
27.3787 0 0
27.4756 0 0
27.4756 0 0
27.5725 0 0
27.5725 0 0
27.6694 0 0
27.6694 0 0
27.7664 0 0
27.7664 0 0
27.8633 0 0
27.8633 0 0
27.9602 0 0
27.9602 0 0
28.0571 0 0
28.0571 0 0
28.1541 0 0
28.1541 0 0
28.251 0 0
28.251 0 0
28.3479 0 0
28.3479 0 0
28.4448 0 0
28.4448 0 0
28.5417 0 0
28.5417 0 0
28.6387 0 0
28.6387 0 0
28.7356 0 0
28.7356 0 0
28.8325 0 0
28.8325 0 0
28.9294 0 0
28.9294 0 0
29.0264 0 0
29.0264 0 0
29.1233 0 0
29.1233 0 0
29.2202 0 0
29.2202 0 0
29.3171 0 0
29.3171 0 0
29.4141 0 0
29.4141 0 0
29.511 0 0
29.511 0 0
29.6079 0 0
29.6079 0 0
29.7048 0 0
29.7048 0 0
29.8018 0 0
29.8018 0 0
29.8987 0 0
29.8987 0 0
29.9956 0 0
29.9956 0 0
30.0925 0 0
30.0925 0 0
30.1895 0 0
30.1895 0 0
30.2864 0 0
30.2864 0 0
30.3833 0 0
30.3833 0 0
30.4802 0 0
30.4802 0 0
30.5771 0 0
30.5771 0 0
30.6741 0 0
30.6741 0 0
30.771 0 0
30.771 0 0
30.8679 0 0
30.8679 0 0
30.9648 0 0
30.9648 0 0
31.0618 0 0
31.0618 0 0
31.1587 0 0
31.1587 0 0
31.2556 0 0
31.2556 0 0
31.3525 0 0
31.3525 0 0
31.4495 0 0
31.4495 0 0
31.5464 0 0
31.5464 0 0
31.6433 0 0
31.6433 0 0
31.7402 0 0
31.7402 0 0
31.8372 0 0
31.8372 0 0
31.9341 0 0
31.9341 0 0
32.031 0 0
32.031 0 0
32.1279 0 0
32.1279 0 0
32.2249 0 0
32.2249 0 0
32.3218 0 0
32.3218 0 0
32.4187 0 0
32.4187 0 0
32.5156 0 0
32.5156 0 0
32.6125 0 0
32.6125 0 0
32.7095 0 0
32.7095 0 0
32.8064 0 0
32.8064 0 0
32.9033 0 0
32.9033 0 0
33.0002 0 0
33.0002 0 0
33.0972 0 0
33.0972 0 0
33.1941 0 0
33.1941 0 0
33.291 0 0
33.291 0 0
33.3879 0 0
33.3879 0 0
33.4849 0 0
33.4849 0 0
33.5818 0 0
33.5818 0 0
33.6787 0 0
33.6787 0 0
33.7756 0 0
33.7756 0 0
33.8726 0 0
33.8726 0 0
33.9695 0 0
33.9695 0 0
34.0664 0 0
34.0664 0 0
34.1633 0 0
34.1633 0 0
34.2603 0 0
34.2603 0 0
34.3572 0 0
34.3572 0 0
34.4541 0 0
34.4541 0 0
34.551 0 0
34.551 0 0
34.6479 0 0
34.6479 0 0
34.7449 0 0
34.7449 0 0
34.8418 0 0
34.8418 0 0
34.9387 0 0
34.9387 0 0
35.0356 0 0
35.0356 0 0
35.1326 0 0
35.1326 0 0
35.2295 0 0
35.2295 0 0
35.3264 0 0
35.3264 0 0
35.4233 0 0
35.4233 0 0
35.5203 0 0
35.5203 0 0
35.6172 0 0
35.6172 0 0
35.7141 0 0
35.7141 0 0
35.811 0 0
35.811 0 0
35.908 0 0
35.908 0 0
36.0049 0 0
36.0049 0 0
36.1018 0 0
36.1018 0 0
36.1987 0 0
36.1987 0 0
36.2957 0 0
36.2957 0 0
36.3926 0 0
36.3926 0 0
36.4895 0 0
36.4895 0 0
36.5864 0 0
36.5864 0 0
36.6833 0 0
36.6833 0 0
36.7803 0 0
36.7803 0 0
36.8772 0 0
36.8772 0 0
36.9741 0 0
36.9741 0 0
37.071 0 0
37.071 0 0
37.168 0 0
37.168 0 0
37.2649 0 0
37.2649 0 0
37.3618 0 0
37.3618 0 0
37.4587 0 0
37.4587 0 0
37.5557 0 0
37.5557 0 0
37.6526 0 0
37.6526 0 0
37.7495 0 0
37.7495 0 0
37.8464 0 0
37.8464 0 0
37.9434 0 0
37.9434 0 0
38.0403 0 0
38.0403 0 0
38.1372 0 0
38.1372 0 0
38.2341 0 0
38.2341 0 0
38.3311 0 0
38.3311 0 0
38.428 0 0
38.428 0 0
38.5249 0 0
38.5249 0 0
38.6218 0 0
38.6218 0 0
38.7188 0 0
38.7188 0 0
38.8157 0 0
38.8157 0 0
38.9126 0 0
38.9126 0 0
39.0095 0 0
39.0095 0 0
39.1064 0 0
39.1064 0 0
39.2034 0 0
39.2034 0 0
39.3003 0 0
39.3003 0 0
39.3972 0 0
39.3972 0 0
39.4941 0 0
39.4941 0 0
39.5911 0 0
39.5911 0 0
39.688 0 0
39.688 0 0
39.7849 0 0
39.7849 0 0
39.8818 0 0
39.8818 0 0
39.9788 0 0
39.9788 0 0
40.0757 0 0
40.0757 0 0
40.1726 0 0
40.1726 0 0
40.2695 0 0
40.2695 0 0
40.3665 0 0
40.3665 0 0
40.4634 0 0
40.4634 0 0
40.5603 0 0
40.5603 0 0
40.6572 0 0
40.6572 0 0
40.7542 0 0
40.7542 0 0
40.8511 0 0
40.8511 0 0
40.948 0 0
40.948 0 0
41.0449 0 0
41.0449 0 0
41.1418 0 0
41.1418 0 0
41.2388 0 0
41.2388 0 0
41.3357 0 0
41.3357 0 0
41.4326 0 0
41.4326 0 0
41.5295 0 0
41.5295 0 0
[...]
POINT_DATA 4096
SCALARS solution_0 double 1
LOOKUP_TABLE default
1.0319e+10 1.01052e+10 1.01052e+10 9.92497e+09 9.92497e+09 9.77144e+09 9.77144e+09 9.63942e+09 9.63942e+09 9.52488e+09 9.52488e+09 9.42463e+09 9.42463e+09 9.33615e+09 9.33615e+09 9.25741e+09 9.25741e+09 9.18678e+09 9.18678e+09 9.12292e+09 9.12292e+09 9.06474e+09 9.06474e+09 9.01133e+09 9.01133e+09 8.96194e+09 8.96194e+09 8.91595e+09 8.91595e+09 8.87282e+09 8.87282e+09 8.83211e+09 8.83211e+09 8.79345e+09 8.79345e+09 8.75651e+09 8.75651e+09 8.72103e+09 8.72103e+09 8.68677e+09 8.68677e+09 8.65352e+09 8.65352e+09 8.62113e+09 8.62113e+09 8.58945e+09 8.58945e+09 8.55834e+09 8.55834e+09 8.5277e+09 8.5277e+09 8.49745e+09 8.49745e+09 8.46748e+09 8.46748e+09 8.43775e+09 8.43775e+09 8.40818e+09 8.40818e+09 8.37873e+09 8.37873e+09 8.34935e+09 8.34935e+09 8.32001e+09 8.32001e+09 8.29066e+09 8.29066e+09 8.2613e+09 8.2613e+09 8.23189e+09 8.23189e+09 8.20241e+09 8.20241e+09 8.17284e+09 8.17284e+09 8.14318e+09 8.14318e+09 8.11342e+09 8.11342e+09 8.08353e+09 8.08353e+09 8.05353e+09 8.05353e+09 8.02339e+09 8.02339e+09 7.99313e+09 7.99313e+09 7.96273e+09 7.96273e+09 7.93219e+09 7.93219e+09 7.90152e+09 7.90152e+09 7.87071e+09 7.87071e+09 7.83977e+09 7.83977e+09 7.8087e+09 7.8087e+09 7.77749e+09 7.77749e+09 7.74616e+09 7.74616e+09 7.71471e+09 7.71471e+09 7.68314e+09 7.68314e+09 7.65145e+09 7.65145e+09 7.61965e+09 7.61965e+09 7.58775e+09 7.58775e+09 7.55574e+09 7.55574e+09 7.52364e+09 7.52364e+09 7.49145e+09 7.49145e+09 7.45917e+09 7.45917e+09 7.42681e+09 7.42681e+09 7.39437e+09 7.39437e+09 7.36186e+09 7.36186e+09 7.32928e+09 7.32928e+09 7.29665e+09 7.29665e+09 7.26396e+09 7.26396e+09 7.23122e+09 7.23122e+09 7.19843e+09 7.19843e+09 7.16561e+09 7.16561e+09 7.13274e+09 7.13274e+09 7.09985e+09 7.09985e+09 7.06694e+09 7.06694e+09 7.034e+09 7.034e+09 7.00105e+09 7.00105e+09 6.96809e+09 6.96809e+09 6.93513e+09 6.93513e+09 6.90216e+09 6.90216e+09 6.86919e+09 6.86919e+09 6.83624e+09 6.83624e+09 6.80329e+09 6.80329e+09 6.77036e+09 6.77036e+09 6.73745e+09 6.73745e+09 6.70456e+09 6.70456e+09 6.6717e+09 6.6717e+09 6.63887e+09 6.63887e+09 6.60608e+09 6.60608e+09 6.57333e+09 6.57333e+09 6.54061e+09 6.54061e+09 6.50795e+09 6.50795e+09 6.47533e+09 6.47533e+09 6.44277e+09 6.44277e+09 6.41026e+09 6.41026e+09 6.37781e+09 6.37781e+09 6.34542e+09 6.34542e+09 6.31309e+09 6.31309e+09 6.28083e+09 6.28083e+09 6.24865e+09 6.24865e+09 6.21653e+09 6.21653e+09 6.18449e+09 6.18449e+09 6.15253e+09 6.15253e+09 6.12064e+09 6.12064e+09 6.08884e+09 6.08884e+09 6.05713e+09 6.05713e+09 6.0255e+09 6.0255e+09 5.99396e+09 5.99396e+09 5.96251e+09 5.96251e+09 5.93115e+09 5.93115e+09 5.89989e+09 5.89989e+09 5.86872e+09 5.86872e+09 5.83766e+09 5.83766e+09 5.80669e+09 5.80669e+09 5.77582e+09 5.77582e+09 5.74506e+09 5.74506e+09 5.7144e+09 5.7144e+09 5.68385e+09 5.68385e+09 5.65341e+09 5.65341e+09 5.62308e+09 5.62308e+09 5.59285e+09 5.59285e+09 5.56274e+09 5.56274e+09 5.53274e+09 5.53274e+09 5.50285e+09 5.50285e+09 5.47308e+09 5.47308e+09 5.44343e+09 5.44343e+09 5.41389e+09 5.41389e+09 5.38447e+09 5.38447e+09 5.35517e+09 5.35517e+09 5.32599e+09 5.32599e+09 5.29693e+09 5.29693e+09 5.26799e+09 5.26799e+09 5.23917e+09 5.23917e+09 5.21047e+09 5.21047e+09 5.1819e+09 5.1819e+09 5.15346e+09 5.15346e+09 5.12513e+09 5.12513e+09 5.09694e+09 5.09694e+09 5.06886e+09 5.06886e+09 5.04092e+09 5.04092e+09 5.0131e+09 5.0131e+09 4.98541e+09 4.98541e+09 4.95784e+09 4.95784e+09 4.93041e+09 4.93041e+09 4.9031e+09 4.9031e+09 4.87592e+09 4.87592e+09 4.84886e+09 4.84886e+09 4.82194e+09 4.82194e+09 4.79515e+09 4.79515e+09 4.76848e+09 4.76848e+09 4.74195e+09 4.74195e+09 4.71554e+09 4.71554e+09 4.68926e+09 4.68926e+09 4.66312e+09 4.66312e+09 4.6371e+09 4.6371e+09 4.61121e+09 4.61121e+09 4.58546e+09 4.58546e+09 4.55983e+09 4.55983e+09 4.53433e+09 4.53433e+09 4.50896e+09 4.50896e+09 4.48373e+09 4.48373e+09 4.45862e+09 4.45862e+09 4.43364e+09 4.43364e+09 4.40879e+09 4.40879e+09 4.38407e+09 4.38407e+09 4.35948e+09 4.35948e+09 4.33502e+09 4.33502e+09 4.31069e+09 4.31069e+09 4.28648e+09 4.28648e+09 4.26241e+09 4.26241e+09 4.23846e+09 4.23846e+09 4.21464e+09 4.21464e+09 4.19095e+09 4.19095e+09 4.16738e+09 4.16738e+09 4.14394e+09 4.14394e+09 4.12063e+09 4.12063e+09 4.09745e+09 4.09745e+09 4.07439e+09 4.07439e+09 4.05146e+09 4.05146e+09 4.02866e+09 4.02866e+09 4.00597e+09 4.00597e+09 3.98342e+09 3.98342e+09 3.96099e+09 3.96099e+09 3.93868e+09 3.93868e+09 3.9165e+09 3.9165e+09 3.89444e+09 3.89444e+09 3.8725e+09 3.8725e+09 3.85069e+09 3.85069e+09 3.829e+09 3.829e+09 3.80743e+09 3.80743e+09 3.78598e+09 3.78598e+09 3.76465e+09 3.76465e+09 3.74345e+09 3.74345e+09 3.72236e+09 3.72236e+09 3.7014e+09 3.7014e+09 3.68055e+09 3.68055e+09 3.65982e+09 3.65982e+09 3.63921e+09 3.63921e+09 3.61872e+09 3.61872e+09 3.59834e+09 3.59834e+09 3.57809e+09 3.57809e+09 3.55794e+09 3.55794e+09 3.53792e+09 3.53792e+09 3.51801e+09 3.51801e+09 3.49821e+09 3.49821e+09 3.47853e+09 3.47853e+09 3.45897e+09 3.45897e+09 3.43951e+09 3.43951e+09 3.42017e+09 3.42017e+09 3.40094e+09 3.40094e+09 3.38183e+09 3.38183e+09 3.36282e+09 3.36282e+09 3.34393e+09 3.34393e+09 3.32515e+09 3.32515e+09 3.30647e+09 3.30647e+09 3.28791e+09 3.28791e+09 3.26946e+09 3.26946e+09 3.25111e+09 3.25111e+09 3.23287e+09 3.23287e+09 3.21474e+09 3.21474e+09 3.19671e+09 3.19671e+09 3.17879e+09 3.17879e+09 3.16098e+09 3.16098e+09 3.14327e+09 3.14327e+09 3.12567e+09 3.12567e+09 3.10817e+09 3.10817e+09 3.09077e+09 3.09077e+09 3.07348e+09 3.07348e+09 3.05629e+09 3.05629e+09 3.0392e+09 3.0392e+09 3.02221e+09 3.02221e+09 3.00532e+09 3.00532e+09 2.98854e+09 2.98854e+09 2.97185e+09 2.97185e+09 2.95526e+09 2.95526e+09 2.93877e+09 2.93877e+09 2.92238e+09 2.92238e+09 2.90609e+09 2.90609e+09 2.88989e+09 2.88989e+09 2.87379e+09 2.87379e+09 2.85779e+09 2.85779e+09 2.84188e+09 2.84188e+09 2.82607e+09 2.82607e+09 2.81035e+09 2.81035e+09 2.79472e+09 2.79472e+09 2.77919e+09 2.77919e+09 2.76375e+09 2.76375e+09 2.7484e+09 2.7484e+09 2.73315e+09 2.73315e+09 2.71798e+09 2.71798e+09 2.70291e+09 2.70291e+09 2.68792e+09 2.68792e+09 2.67303e+09 2.67303e+09 2.65822e+09 2.65822e+09 2.64351e+09 2.64351e+09 2.62888e+09 2.62888e+09 2.61434e+09 2.61434e+09 2.59988e+09 2.59988e+09 2.58552e+09 2.58552e+09 2.57123e+09 2.57123e+09 2.55704e+09 2.55704e+09 2.54293e+09 2.54293e+09 2.5289e+09 2.5289e+09 2.51496e+09 2.51496e+09 2.5011e+09 2.5011e+09 2.48732e+09 2.48732e+09 2.47363e+09 2.47363e+09 2.46002e+09 2.46002e+09 2.44648e+09 2.44648e+09 2.43304e+09 2.43304e+09 2.41967e+09 2.41967e+09 2.40638e+09 2.40638e+09 2.39317e+09 2.39317e+09 2.38004e+09 2.38004e+09 2.36698e+09 2.36698e+09 2.35401e+09 2.35401e+09 2.34111e+09 2.34111e+09 2.32829e+09 2.32829e+09 2.31555e+09 2.31555e+09 2.30288e+09 2.30288e+09 2.29029e+09 2.29029e+09 2.27777e+09 2.27777e+09 2.26533e+09 2.26533e+09 2.25296e+09 2.25296e+09 2.24067e+09 2.24067e+09 2.22845e+09 2.22845e+09 2.2163e+09 2.2163e+09 2.20422e+09 2.20422e+09 2.19222e+09 2.19222e+09 2.18029e+09 2.18029e+09 2.16842e+09 2.16842e+09 2.15663e+09 2.15663e+09 2.14491e+09 2.14491e+09 2.13326e+09 2.13326e+09 2.12168e+09 2.12168e+09 2.11017e+09 2.11017e+09 2.09872e+09 2.09872e+09 2.08734e+09 2.08734e+09 2.07603e+09 2.07603e+09 2.06479e+09 2.06479e+09 2.05362e+09 2.05362e+09 2.04251e+09 2.04251e+09 2.03146e+09 2.03146e+09 2.02048e+09 2.02048e+09 2.00957e+09 2.00957e+09 1.99872e+09 1.99872e+09 1.98794e+09 1.98794e+09 1.97721e+09 1.97721e+09 1.96656e+09 1.96656e+09 1.95596e+09 1.95596e+09 1.94543e+09 1.94543e+09 1.93496e+09 1.93496e+09 1.92455e+09 1.92455e+09 1.9142e+09 1.9142e+09 1.90391e+09 1.90391e+09 1.89368e+09 1.89368e+09 1.88352e+09 1.88352e+09 1.87341e+09 1.87341e+09 1.86336e+09 1.86336e+09 1.85337e+09 1.85337e+09 1.84344e+09 1.84344e+09 1.83357e+09 1.83357e+09 1.82376e+09 1.82376e+09 1.814e+09 1.814e+09 1.8043e+09 1.8043e+09 1.79466e+09 1.79466e+09 1.78507e+09 1.78507e+09 1.77554e+09 1.77554e+09 1.76606e+09 1.76606e+09 1.75664e+09 1.75664e+09 1.74727e+09 1.74727e+09 1.73796e+09 1.73796e+09 1.7287e+09 1.7287e+09 1.7195e+09 1.7195e+09 1.71035e+09 1.71035e+09 1.70125e+09 1.70125e+09 1.69221e+09 1.69221e+09 1.68322e+09 1.68322e+09 1.67428e+09 1.67428e+09 1.66539e+09 1.66539e+09 1.65655e+09 1.65655e+09 1.64776e+09 1.64776e+09 1.63903e+09 1.63903e+09 1.63034e+09 1.63034e+09 1.62171e+09 1.62171e+09 1.61312e+09 1.61312e+09 1.60459e+09 1.60459e+09 1.5961e+09 1.5961e+09 1.58766e+09 1.58766e+09 1.57927e+09 1.57927e+09 1.57093e+09 1.57093e+09 1.56263e+09 1.56263e+09 1.55439e+09 1.55439e+09 1.54619e+09 1.54619e+09 1.53803e+09 1.53803e+09 1.52993e+09 1.52993e+09 1.52187e+09 1.52187e+09 1.51385e+09 1.51385e+09 1.50588e+09 1.50588e+09 1.49796e+09 1.49796e+09 1.49008e+09 1.49008e+09 1.48225e+09 1.48225e+09 1.47446e+09 1.47446e+09 1.46671e+09 1.46671e+09 1.45901e+09 1.45901e+09 1.45135e+09 1.45135e+09 1.44374e+09 1.44374e+09 1.43617e+09 1.43617e+09 1.42864e+09 1.42864e+09 1.42115e+09 1.42115e+09 1.41371e+09 1.41371e+09 1.4063e+09 1.4063e+09 1.39894e+09 1.39894e+09 1.39162e+09 1.39162e+09 1.38434e+09 1.38434e+09 1.37711e+09 1.37711e+09 1.36991e+09 1.36991e+09 1.36275e+09 1.36275e+09 1.35563e+09 1.35563e+09 1.34856e+09 1.34856e+09 1.34152e+09 1.34152e+09 1.33452e+09 1.33452e+09 1.32756e+09 1.32756e+09 1.32064e+09 1.32064e+09 1.31376e+09 1.31376e+09 1.30691e+09 1.30691e+09 1.3001e+09 1.3001e+09 1.29334e+09 1.29334e+09 1.2866e+09 1.2866e+09 1.27991e+09 1.27991e+09 1.27325e+09 1.27325e+09 1.26663e+09 1.26663e+09 1.26005e+09 1.26005e+09 1.2535e+09 1.2535e+09 1.24699e+09 1.24699e+09 1.24051e+09 1.24051e+09 1.23407e+09 1.23407e+09 1.22767e+09 1.22767e+09 1.2213e+09 1.2213e+09 1.21496e+09 1.21496e+09 1.20866e+09 1.20866e+09 1.20239e+09 1.20239e+09 1.19616e+09 1.19616e+09 1.18996e+09 1.18996e+09 1.1838e+09 1.1838e+09 1.17767e+09 1.17767e+09 1.17157e+09 1.17157e+09 1.16551e+09 1.16551e+09 1.15947e+09 1.15947e+09 1.15348e+09 1.15348e+09 1.14751e+09 1.14751e+09 1.14157e+09 1.14157e+09 1.13567e+09 1.13567e+09 1.1298e+09 1.1298e+09 1.12396e+09 1.12396e+09 1.11816e+09 1.11816e+09 1.11238e+09 1.11238e+09 1.10663e+09 1.10663e+09 1.10092e+09 1.10092e+09 1.09524e+09 1.09524e+09 1.08958e+09 1.08958e+09 1.08396e+09 1.08396e+09 1.07837e+09 1.07837e+09 1.0728e+09 1.0728e+09 1.06727e+09 1.06727e+09 1.06177e+09 1.06177e+09 1.05629e+09 1.05629e+09 1.05085e+09 1.05085e+09 1.04543e+09 1.04543e+09 1.04004e+09 1.04004e+09 1.03468e+09 1.03468e+09 1.02935e+09 1.02935e+09 1.02405e+09 1.02405e+09 1.01877e+09 1.01877e+09 1.01353e+09 1.01353e+09 1.00831e+09 1.00831e+09 1.00311e+09 1.00311e+09 9.97949e+08 9.97949e+08 9.92811e+08 9.92811e+08 9.87701e+08 9.87701e+08 9.82617e+08 9.82617e+08 9.77559e+08 9.77559e+08 9.72528e+08 9.72528e+08 9.67523e+08 9.67523e+08 9.62545e+08 9.62545e+08 9.57592e+08 9.57592e+08 9.52665e+08 9.52665e+08 9.47764e+08 9.47764e+08 9.42888e+08 9.42888e+08 9.38038e+08 9.38038e+08 9.33212e+08 9.33212e+08 9.28412e+08 9.28412e+08 9.23636e+08 9.23636e+08 9.18885e+08 9.18885e+08 9.14159e+08 9.14159e+08 9.09456e+08 9.09456e+08 9.04778e+08 9.04778e+08 9.00125e+08 9.00125e+08 8.95495e+08 8.95495e+08 8.90888e+08 8.90888e+08 8.86306e+08 8.86306e+08 8.81746e+08 8.81746e+08 8.77211e+08 8.77211e+08 8.72698e+08 8.72698e+08 8.68208e+08 8.68208e+08 8.63741e+08 8.63741e+08 8.59297e+08 8.59297e+08 8.54876e+08 8.54876e+08 8.50476e+08 8.50476e+08 8.461e+08 8.461e+08 8.41745e+08 8.41745e+08 8.37412e+08 8.37412e+08 8.33102e+08 8.33102e+08 8.28813e+08 8.28813e+08 8.24546e+08 8.24546e+08 8.203e+08 8.203e+08 8.16075e+08 8.16075e+08 8.11872e+08 8.11872e+08 8.0769e+08 8.0769e+08 8.03529e+08 8.03529e+08 7.99389e+08 7.99389e+08 7.95269e+08 7.95269e+08 7.9117e+08 7.9117e+08 7.87091e+08 7.87091e+08 7.83033e+08 7.83033e+08 7.78995e+08 7.78995e+08 7.74977e+08 7.74977e+08 7.70979e+08 7.70979e+08 7.67001e+08 7.67001e+08 7.63043e+08 7.63043e+08 7.59104e+08 7.59104e+08 7.55185e+08 7.55185e+08 7.51285e+08 7.51285e+08 7.47404e+08 7.47404e+08 7.43543e+08 7.43543e+08 7.397e+08 7.397e+08 7.35877e+08 7.35877e+08 7.32072e+08 7.32072e+08 7.28286e+08 7.28286e+08 7.24518e+08 7.24518e+08 7.20769e+08 7.20769e+08 7.17038e+08 7.17038e+08 7.13325e+08 7.13325e+08 7.09631e+08 7.09631e+08 7.05954e+08 7.05954e+08 7.02296e+08 7.02296e+08 6.98655e+08 6.98655e+08 6.95032e+08 6.95032e+08 6.91426e+08 6.91426e+08 6.87838e+08 6.87838e+08 6.84268e+08 6.84268e+08 6.80714e+08 6.80714e+08 6.77178e+08 6.77178e+08 6.73659e+08 6.73659e+08 6.70157e+08 6.70157e+08 6.66671e+08 6.66671e+08 6.63203e+08 6.63203e+08 6.59751e+08 6.59751e+08 6.56315e+08 6.56315e+08 6.52897e+08 6.52897e+08 6.49494e+08 6.49494e+08 6.46108e+08 6.46108e+08 6.42737e+08 6.42737e+08 6.39383e+08 6.39383e+08 6.36045e+08 6.36045e+08 6.32723e+08 6.32723e+08 6.29417e+08 6.29417e+08 6.26126e+08 6.26126e+08 6.22851e+08 6.22851e+08 6.19591e+08 6.19591e+08 6.16347e+08 6.16347e+08 6.13119e+08 6.13119e+08 6.09905e+08 6.09905e+08 6.06707e+08 6.06707e+08 6.03523e+08 6.03523e+08 6.00355e+08 6.00355e+08 5.97202e+08 5.97202e+08 5.94063e+08 5.94063e+08 5.90939e+08 5.90939e+08 5.8783e+08 5.8783e+08 5.84735e+08 5.84735e+08 5.81655e+08 5.81655e+08 5.78589e+08 5.78589e+08 5.75537e+08 5.75537e+08 5.725e+08 5.725e+08 5.69477e+08 5.69477e+08 5.66467e+08 5.66467e+08 5.63472e+08 5.63472e+08 5.60491e+08 5.60491e+08 5.57523e+08 5.57523e+08 5.5457e+08 5.5457e+08 5.5163e+08 5.5163e+08 5.48703e+08 5.48703e+08 5.4579e+08 5.4579e+08 5.4289e+08 5.4289e+08 5.40004e+08 5.40004e+08 5.37131e+08 5.37131e+08 5.34271e+08 5.34271e+08 5.31425e+08 5.31425e+08 5.28591e+08 5.28591e+08 5.2577e+08 5.2577e+08 5.22962e+08 5.22962e+08 5.20167e+08 5.20167e+08 5.17385e+08 5.17385e+08 5.14616e+08 5.14616e+08 5.11859e+08 5.11859e+08 5.09114e+08 5.09114e+08 5.06382e+08 5.06382e+08 5.03663e+08 5.03663e+08 5.00956e+08 5.00956e+08 4.98261e+08 4.98261e+08 4.95578e+08 4.95578e+08 4.92907e+08 4.92907e+08 4.90249e+08 4.90249e+08 4.87602e+08 4.87602e+08 4.84967e+08 4.84967e+08 4.82344e+08 4.82344e+08 4.79733e+08 4.79733e+08 4.77134e+08 4.77134e+08 4.74546e+08 4.74546e+08 4.7197e+08 4.7197e+08 4.69405e+08 4.69405e+08 4.66852e+08 4.66852e+08 4.6431e+08 4.6431e+08 4.6178e+08 4.6178e+08 4.59261e+08 4.59261e+08 4.56753e+08 4.56753e+08 4.54256e+08 4.54256e+08 4.5177e+08 4.5177e+08 4.49295e+08 4.49295e+08 4.46832e+08 4.46832e+08 4.44379e+08 4.44379e+08 4.41937e+08 4.41937e+08 4.39506e+08 4.39506e+08 4.37085e+08 4.37085e+08 4.34675e+08 4.34675e+08 4.32276e+08 4.32276e+08 4.29887e+08 4.29887e+08 4.27509e+08 4.27509e+08 4.25141e+08 4.25141e+08 4.22784e+08 4.22784e+08 4.20437e+08 4.20437e+08 4.181e+08 4.181e+08 4.15773e+08 4.15773e+08 4.13457e+08 4.13457e+08 4.1115e+08 4.1115e+08 4.08854e+08 4.08854e+08 4.06568e+08 4.06568e+08 4.04291e+08 4.04291e+08 4.02025e+08 4.02025e+08 3.99768e+08 3.99768e+08 3.97521e+08 3.97521e+08 3.95284e+08 3.95284e+08 3.93056e+08 3.93056e+08 3.90838e+08 3.90838e+08 3.8863e+08 3.8863e+08 3.86431e+08 3.86431e+08 3.84242e+08 3.84242e+08 3.82062e+08 3.82062e+08 3.79891e+08 3.79891e+08 3.7773e+08 3.7773e+08 3.75578e+08 3.75578e+08 3.73435e+08 3.73435e+08 3.71302e+08 3.71302e+08 3.69177e+08 3.69177e+08 3.67062e+08 3.67062e+08 3.64955e+08 3.64955e+08 3.62858e+08 3.62858e+08 3.60769e+08 3.60769e+08 3.58689e+08 3.58689e+08 3.56619e+08 3.56619e+08 3.54556e+08 3.54556e+08 3.52503e+08 3.52503e+08 3.50459e+08 3.50459e+08 3.48423e+08 3.48423e+08 3.46395e+08 3.46395e+08 3.44376e+08 3.44376e+08 3.42366e+08 3.42366e+08 3.40364e+08 3.40364e+08 3.38371e+08 3.38371e+08 3.36386e+08 3.36386e+08 3.34409e+08 3.34409e+08 3.32441e+08 3.32441e+08 3.3048e+08 3.3048e+08 3.28528e+08 3.28528e+08 3.26585e+08 3.26585e+08 3.24649e+08 3.24649e+08 3.22721e+08 3.22721e+08 3.20802e+08 3.20802e+08 3.1889e+08 3.1889e+08 3.16987e+08 3.16987e+08 3.15091e+08 3.15091e+08 3.13203e+08 3.13203e+08 3.11323e+08 3.11323e+08 3.09451e+08 3.09451e+08 3.07586e+08 3.07586e+08 3.0573e+08 3.0573e+08 3.03881e+08 3.03881e+08 3.02039e+08 3.02039e+08 3.00205e+08 3.00205e+08 2.98379e+08 2.98379e+08 2.9656e+08 2.9656e+08 2.94749e+08 2.94749e+08 2.92945e+08 2.92945e+08 2.91149e+08 2.91149e+08 2.8936e+08 2.8936e+08 2.87578e+08 2.87578e+08 2.85803e+08 2.85803e+08 2.84036e+08 2.84036e+08 2.82276e+08 2.82276e+08 2.80523e+08 2.80523e+08 2.78778e+08 2.78778e+08 2.77039e+08 2.77039e+08 2.75308e+08 2.75308e+08 2.73583e+08 2.73583e+08 2.71866e+08 2.71866e+08 2.70155e+08 2.70155e+08 2.68452e+08 2.68452e+08 2.66755e+08 2.66755e+08 2.65065e+08 2.65065e+08 2.63382e+08 2.63382e+08 2.61706e+08 2.61706e+08 2.60037e+08 2.60037e+08 2.58374e+08 2.58374e+08 2.56718e+08 2.56718e+08 2.55069e+08 2.55069e+08 2.53426e+08 2.53426e+08 2.5179e+08 2.5179e+08 2.5016e+08 2.5016e+08 2.48537e+08 2.48537e+08 2.46921e+08 2.46921e+08 2.45311e+08 2.45311e+08 2.43707e+08 2.43707e+08 2.4211e+08 2.4211e+08 2.40519e+08 2.40519e+08 2.38935e+08 2.38935e+08 2.37357e+08 2.37357e+08 2.35785e+08 2.35785e+08 2.34219e+08 2.34219e+08 2.32659e+08 2.32659e+08 2.31106e+08 2.31106e+08 2.29559e+08 2.29559e+08 2.28018e+08 2.28018e+08 2.26483e+08 2.26483e+08 2.24954e+08 2.24954e+08 2.23432e+08 2.23432e+08 2.21915e+08 2.21915e+08 2.20404e+08 2.20404e+08 2.18899e+08 2.18899e+08 2.174e+08 2.174e+08 2.15907e+08 2.15907e+08 2.1442e+08 2.1442e+08 2.12939e+08 2.12939e+08 2.11463e+08 2.11463e+08 2.09993e+08 2.09993e+08 2.08529e+08 2.08529e+08 2.07071e+08 2.07071e+08 2.05618e+08 2.05618e+08 2.04171e+08 2.04171e+08 2.0273e+08 2.0273e+08 2.01294e+08 2.01294e+08 1.99864e+08 1.99864e+08 1.9844e+08 1.9844e+08 1.97021e+08 1.97021e+08 1.95607e+08 1.95607e+08 1.94199e+08 1.94199e+08 1.92797e+08 1.92797e+08 1.91399e+08 1.91399e+08 1.90008e+08 1.90008e+08 1.88621e+08 1.88621e+08 1.8724e+08 1.8724e+08 1.85865e+08 1.85865e+08 1.84494e+08 1.84494e+08 1.83129e+08 1.83129e+08 1.81769e+08 1.81769e+08 1.80415e+08 1.80415e+08 1.79065e+08 1.79065e+08 1.77721e+08 1.77721e+08 1.76382e+08 1.76382e+08 1.75048e+08 1.75048e+08 1.73719e+08 1.73719e+08 1.72395e+08 1.72395e+08 1.71077e+08 1.71077e+08 1.69763e+08 1.69763e+08 1.68454e+08 1.68454e+08 1.67151e+08 1.67151e+08 1.65852e+08 1.65852e+08 1.64558e+08 1.64558e+08 1.63269e+08 1.63269e+08 1.61986e+08 1.61986e+08 1.60706e+08 1.60706e+08 1.59432e+08 1.59432e+08 1.58163e+08 1.58163e+08 1.56898e+08 1.56898e+08 1.55638e+08 1.55638e+08 1.54383e+08 1.54383e+08 1.53133e+08 1.53133e+08 1.51887e+08 1.51887e+08 1.50647e+08 1.50647e+08 1.4941e+08 1.4941e+08 1.48179e+08 1.48179e+08 1.46952e+08 1.46952e+08 1.45729e+08 1.45729e+08 1.44512e+08 1.44512e+08 1.43299e+08 1.43299e+08 1.4209e+08 1.4209e+08 1.40886e+08 1.40886e+08 1.39686e+08 1.39686e+08 1.38491e+08 1.38491e+08 1.373e+08 1.373e+08 1.36114e+08 1.36114e+08 1.34933e+08 1.34933e+08 1.33755e+08 1.33755e+08 1.32582e+08 1.32582e+08 1.31414e+08 1.31414e+08 1.30249e+08 1.30249e+08 1.29089e+08 1.29089e+08 1.27934e+08 1.27934e+08 1.26782e+08 1.26782e+08 1.25635e+08 1.25635e+08 1.24492e+08 1.24492e+08 1.23354e+08 1.23354e+08 1.22219e+08 1.22219e+08 1.21089e+08 1.21089e+08 1.19963e+08 1.19963e+08 1.18841e+08 1.18841e+08 1.17724e+08 1.17724e+08 1.1661e+08 1.1661e+08 1.155e+08 1.155e+08 1.14395e+08 1.14395e+08 1.13294e+08 1.13294e+08 1.12196e+08 1.12196e+08 1.11103e+08 1.11103e+08 1.10014e+08 1.10014e+08 1.08928e+08 1.08928e+08 1.07847e+08 1.07847e+08 1.0677e+08 1.0677e+08 1.05696e+08 1.05696e+08 1.04627e+08 1.04627e+08 1.03561e+08 1.03561e+08 1.02499e+08 1.02499e+08 1.01441e+08 1.01441e+08 1.00387e+08 1.00387e+08 9.93371e+07 9.93371e+07 9.82907e+07 9.82907e+07 9.72482e+07 9.72482e+07 9.62094e+07 9.62094e+07 9.51744e+07 9.51744e+07 9.41431e+07 9.41431e+07 9.31156e+07 9.31156e+07 9.20918e+07 9.20918e+07 9.10717e+07 9.10717e+07 9.00552e+07 9.00552e+07 8.90425e+07 8.90425e+07 8.80334e+07 8.80334e+07 8.70279e+07 8.70279e+07 8.60261e+07 8.60261e+07 8.50279e+07 8.50279e+07 8.40333e+07 8.40333e+07 8.30422e+07 8.30422e+07 8.20547e+07 8.20547e+07 8.10708e+07 8.10708e+07 8.00903e+07 8.00903e+07 7.91134e+07 7.91134e+07 7.814e+07 7.814e+07 7.71701e+07 7.71701e+07 7.62037e+07 7.62037e+07 7.52407e+07 7.52407e+07 7.42811e+07 7.42811e+07 7.3325e+07 7.3325e+07 7.23723e+07 7.23723e+07 7.1423e+07 7.1423e+07 7.0477e+07 7.0477e+07 6.95344e+07 6.95344e+07 6.85952e+07 6.85952e+07 6.76593e+07 6.76593e+07 6.67268e+07 6.67268e+07 6.57975e+07 6.57975e+07 6.48716e+07 6.48716e+07 6.39489e+07 6.39489e+07 6.30295e+07 6.