# vtk DataFile Version 3.0
#This file was generated by the deal.II library on 2020/9/6 at 3:09:10
ASCII
DATASET UNSTRUCTURED_GRID

POINTS 4096 double
1.5 0 0
1.59692 0 0
1.59692 0 0
1.69385 0 0
1.69385 0 0
1.79077 0 0
1.79077 0 0
1.8877 0 0
1.8877 0 0
1.98462 0 0
1.98462 0 0
2.08154 0 0
2.08154 0 0
2.17847 0 0
2.17847 0 0
2.27539 0 0
2.27539 0 0
2.37231 0 0
2.37231 0 0
2.46924 0 0
2.46924 0 0
2.56616 0 0
2.56616 0 0
2.66309 0 0
2.66309 0 0
2.76001 0 0
2.76001 0 0
2.85693 0 0
2.85693 0 0
2.95386 0 0
2.95386 0 0
3.05078 0 0
3.05078 0 0
3.14771 0 0
3.14771 0 0
3.24463 0 0
3.24463 0 0
3.34155 0 0
3.34155 0 0
3.43848 0 0
3.43848 0 0
3.5354 0 0
3.5354 0 0
3.63232 0 0
3.63232 0 0
3.72925 0 0
3.72925 0 0
3.82617 0 0
3.82617 0 0
3.9231 0 0
3.9231 0 0
4.02002 0 0
4.02002 0 0
4.11694 0 0
4.11694 0 0
4.21387 0 0
4.21387 0 0
4.31079 0 0
4.31079 0 0
4.40771 0 0
4.40771 0 0
4.50464 0 0
4.50464 0 0
4.60156 0 0
4.60156 0 0
4.69849 0 0
4.69849 0 0
4.79541 0 0
4.79541 0 0
4.89233 0 0
4.89233 0 0
4.98926 0 0
4.98926 0 0
5.08618 0 0
5.08618 0 0
5.18311 0 0
5.18311 0 0
5.28003 0 0
5.28003 0 0
5.37695 0 0
5.37695 0 0
5.47388 0 0
5.47388 0 0
5.5708 0 0
5.5708 0 0
5.66772 0 0
5.66772 0 0
5.76465 0 0
5.76465 0 0
5.86157 0 0
5.86157 0 0
5.9585 0 0
5.9585 0 0
6.05542 0 0
6.05542 0 0
6.15234 0 0
6.15234 0 0
6.24927 0 0
6.24927 0 0
6.34619 0 0
6.34619 0 0
6.44312 0 0
6.44312 0 0
6.54004 0 0
6.54004 0 0
6.63696 0 0
6.63696 0 0
6.73389 0 0
6.73389 0 0
6.83081 0 0
6.83081 0 0
6.92773 0 0
6.92773 0 0
7.02466 0 0
7.02466 0 0
7.12158 0 0
7.12158 0 0
7.21851 0 0
7.21851 0 0
7.31543 0 0
7.31543 0 0
7.41235 0 0
7.41235 0 0
7.50928 0 0
7.50928 0 0
7.6062 0 0
7.6062 0 0
7.70312 0 0
7.70312 0 0
7.80005 0 0
7.80005 0 0
7.89697 0 0
7.89697 0 0
7.9939 0 0
7.9939 0 0
8.09082 0 0
8.09082 0 0
8.18774 0 0
8.18774 0 0
8.28467 0 0
8.28467 0 0
8.38159 0 0
8.38159 0 0
8.47852 0 0
8.47852 0 0
8.57544 0 0
8.57544 0 0
8.67236 0 0
8.67236 0 0
8.76929 0 0
8.76929 0 0
8.86621 0 0
8.86621 0 0
8.96313 0 0
8.96313 0 0
9.06006 0 0
9.06006 0 0
9.15698 0 0
9.15698 0 0
9.25391 0 0
9.25391 0 0
9.35083 0 0
9.35083 0 0
9.44775 0 0
9.44775 0 0
9.54468 0 0
9.54468 0 0
9.6416 0 0
9.6416 0 0
9.73853 0 0
9.73853 0 0
9.83545 0 0
9.83545 0 0
9.93237 0 0
9.93237 0 0
10.0293 0 0
10.0293 0 0
10.1262 0 0
10.1262 0 0
10.2231 0 0
10.2231 0 0
10.3201 0 0
10.3201 0 0
10.417 0 0
10.417 0 0
10.5139 0 0
10.5139 0 0
10.6108 0 0
10.6108 0 0
10.7078 0 0
10.7078 0 0
10.8047 0 0
10.8047 0 0
10.9016 0 0
10.9016 0 0
10.9985 0 0
10.9985 0 0
11.0955 0 0
11.0955 0 0
11.1924 0 0
11.1924 0 0
11.2893 0 0
11.2893 0 0
11.3862 0 0
11.3862 0 0
11.4832 0 0
11.4832 0 0
11.5801 0 0
11.5801 0 0
11.677 0 0
11.677 0 0
11.7739 0 0
11.7739 0 0
11.8708 0 0
11.8708 0 0
11.9678 0 0
11.9678 0 0
12.0647 0 0
12.0647 0 0
12.1616 0 0
12.1616 0 0
12.2585 0 0
12.2585 0 0
12.3555 0 0
12.3555 0 0
12.4524 0 0
12.4524 0 0
12.5493 0 0
12.5493 0 0
12.6462 0 0
12.6462 0 0
12.7432 0 0
12.7432 0 0
12.8401 0 0
12.8401 0 0
12.937 0 0
12.937 0 0
13.0339 0 0
13.0339 0 0
13.1309 0 0
13.1309 0 0
13.2278 0 0
13.2278 0 0
13.3247 0 0
13.3247 0 0
13.4216 0 0
13.4216 0 0
13.5186 0 0
13.5186 0 0
13.6155 0 0
13.6155 0 0
13.7124 0 0
13.7124 0 0
13.8093 0 0
13.8093 0 0
13.9062 0 0
13.9062 0 0
14.0032 0 0
14.0032 0 0
14.1001 0 0
14.1001 0 0
14.197 0 0
14.197 0 0
14.2939 0 0
14.2939 0 0
14.3909 0 0
14.3909 0 0
14.4878 0 0
14.4878 0 0
14.5847 0 0
14.5847 0 0
14.6816 0 0
14.6816 0 0
14.7786 0 0
14.7786 0 0
14.8755 0 0
14.8755 0 0
14.9724 0 0
14.9724 0 0
15.0693 0 0
15.0693 0 0
15.1663 0 0
15.1663 0 0
15.2632 0 0
15.2632 0 0
15.3601 0 0
15.3601 0 0
15.457 0 0
15.457 0 0
15.554 0 0
15.554 0 0
15.6509 0 0
15.6509 0 0
15.7478 0 0
15.7478 0 0
15.8447 0 0
15.8447 0 0
15.9417 0 0
15.9417 0 0
16.0386 0 0
16.0386 0 0
16.1355 0 0
16.1355 0 0
16.2324 0 0
16.2324 0 0
16.3293 0 0
16.3293 0 0
16.4263 0 0
16.4263 0 0
16.5232 0 0
16.5232 0 0
16.6201 0 0
16.6201 0 0
16.717 0 0
16.717 0 0
16.814 0 0
16.814 0 0
16.9109 0 0
16.9109 0 0
17.0078 0 0
17.0078 0 0
17.1047 0 0
17.1047 0 0
17.2017 0 0
17.2017 0 0
17.2986 0 0
17.2986 0 0
17.3955 0 0
17.3955 0 0
17.4924 0 0
17.4924 0 0
17.5894 0 0
17.5894 0 0
17.6863 0 0
17.6863 0 0
17.7832 0 0
17.7832 0 0
17.8801 0 0
17.8801 0 0
17.9771 0 0
17.9771 0 0
18.074 0 0
18.074 0 0
18.1709 0 0
18.1709 0 0
18.2678 0 0
18.2678 0 0
18.3647 0 0
18.3647 0 0
18.4617 0 0
18.4617 0 0
18.5586 0 0
18.5586 0 0
18.6555 0 0
18.6555 0 0
18.7524 0 0
18.7524 0 0
18.8494 0 0
18.8494 0 0
18.9463 0 0
18.9463 0 0
19.0432 0 0
19.0432 0 0
19.1401 0 0
19.1401 0 0
19.2371 0 0
19.2371 0 0
19.334 0 0
19.334 0 0
19.4309 0 0
19.4309 0 0
19.5278 0 0
19.5278 0 0
19.6248 0 0
19.6248 0 0
19.7217 0 0
19.7217 0 0
19.8186 0 0
19.8186 0 0
19.9155 0 0
19.9155 0 0
20.0125 0 0
20.0125 0 0
20.1094 0 0
20.1094 0 0
20.2063 0 0
20.2063 0 0
20.3032 0 0
20.3032 0 0
20.4001 0 0
20.4001 0 0
20.4971 0 0
20.4971 0 0
20.594 0 0
20.594 0 0
20.6909 0 0
20.6909 0 0
20.7878 0 0
20.7878 0 0
20.8848 0 0
20.8848 0 0
20.9817 0 0
20.9817 0 0
21.0786 0 0
21.0786 0 0
21.1755 0 0
21.1755 0 0
21.2725 0 0
21.2725 0 0
21.3694 0 0
21.3694 0 0
21.4663 0 0
21.4663 0 0
21.5632 0 0
21.5632 0 0
21.6602 0 0
21.6602 0 0
21.7571 0 0
21.7571 0 0
21.854 0 0
21.854 0 0
21.9509 0 0
21.9509 0 0
22.0479 0 0
22.0479 0 0
22.1448 0 0
22.1448 0 0
22.2417 0 0
22.2417 0 0
22.3386 0 0
22.3386 0 0
22.4355 0 0
22.4355 0 0
22.5325 0 0
22.5325 0 0
22.6294 0 0
22.6294 0 0
22.7263 0 0
22.7263 0 0
22.8232 0 0
22.8232 0 0
22.9202 0 0
22.9202 0 0
23.0171 0 0
23.0171 0 0
23.114 0 0
23.114 0 0
23.2109 0 0
23.2109 0 0
23.3079 0 0
23.3079 0 0
23.4048 0 0
23.4048 0 0
23.5017 0 0
23.5017 0 0
23.5986 0 0
23.5986 0 0
23.6956 0 0
23.6956 0 0
23.7925 0 0
23.7925 0 0
23.8894 0 0
23.8894 0 0
23.9863 0 0
23.9863 0 0
24.0833 0 0
24.0833 0 0
24.1802 0 0
24.1802 0 0
24.2771 0 0
24.2771 0 0
24.374 0 0
24.374 0 0
24.4709 0 0
24.4709 0 0
24.5679 0 0
24.5679 0 0
24.6648 0 0
24.6648 0 0
24.7617 0 0
24.7617 0 0
24.8586 0 0
24.8586 0 0
24.9556 0 0
24.9556 0 0
25.0525 0 0
25.0525 0 0
25.1494 0 0
25.1494 0 0
25.2463 0 0
25.2463 0 0
25.3433 0 0
25.3433 0 0
25.4402 0 0
25.4402 0 0
25.5371 0 0
25.5371 0 0
25.634 0 0
25.634 0 0
25.731 0 0
25.731 0 0
25.8279 0 0
25.8279 0 0
25.9248 0 0
25.9248 0 0
26.0217 0 0
26.0217 0 0
26.1187 0 0
26.1187 0 0
26.2156 0 0
26.2156 0 0
26.3125 0 0
26.3125 0 0
26.4094 0 0
26.4094 0 0
26.5063 0 0
26.5063 0 0
26.6033 0 0
26.6033 0 0
26.7002 0 0
26.7002 0 0
26.7971 0 0
26.7971 0 0
26.894 0 0
26.894 0 0
26.991 0 0
26.991 0 0
27.0879 0 0
27.0879 0 0
27.1848 0 0
27.1848 0 0
27.2817 0 0
27.2817 0 0
27.3787 0 0
27.3787 0 0
27.4756 0 0
27.4756 0 0
27.5725 0 0
27.5725 0 0
27.6694 0 0
27.6694 0 0
27.7664 0 0
27.7664 0 0
27.8633 0 0
27.8633 0 0
27.9602 0 0
27.9602 0 0
28.0571 0 0
28.0571 0 0
28.1541 0 0
28.1541 0 0
28.251 0 0
28.251 0 0
28.3479 0 0
28.3479 0 0
28.4448 0 0
28.4448 0 0
28.5417 0 0
28.5417 0 0
28.6387 0 0
28.6387 0 0
28.7356 0 0
28.7356 0 0
28.8325 0 0
28.8325 0 0
28.9294 0 0
28.9294 0 0
29.0264 0 0
29.0264 0 0
29.1233 0 0
29.1233 0 0
29.2202 0 0
29.2202 0 0
29.3171 0 0
29.3171 0 0
29.4141 0 0
29.4141 0 0
29.511 0 0
29.511 0 0
29.6079 0 0
29.6079 0 0
29.7048 0 0
29.7048 0 0
29.8018 0 0
29.8018 0 0
29.8987 0 0
29.8987 0 0
29.9956 0 0
29.9956 0 0
30.0925 0 0
30.0925 0 0
30.1895 0 0
30.1895 0 0
30.2864 0 0
30.2864 0 0
30.3833 0 0
30.3833 0 0
30.4802 0 0
30.4802 0 0
30.5771 0 0
30.5771 0 0
30.6741 0 0
30.6741 0 0
30.771 0 0
30.771 0 0
30.8679 0 0
30.8679 0 0
30.9648 0 0
30.9648 0 0
31.0618 0 0
31.0618 0 0
31.1587 0 0
31.1587 0 0
31.2556 0 0
31.2556 0 0
31.3525 0 0
31.3525 0 0
31.4495 0 0
31.4495 0 0
31.5464 0 0
31.5464 0 0
31.6433 0 0
31.6433 0 0
31.7402 0 0
31.7402 0 0
31.8372 0 0
31.8372 0 0
31.9341 0 0
31.9341 0 0
32.031 0 0
32.031 0 0
32.1279 0 0
32.1279 0 0
32.2249 0 0
32.2249 0 0
32.3218 0 0
32.3218 0 0
32.4187 0 0
32.4187 0 0
32.5156 0 0
32.5156 0 0
32.6125 0 0
32.6125 0 0
32.7095 0 0
32.7095 0 0
32.8064 0 0
32.8064 0 0
32.9033 0 0
32.9033 0 0
33.0002 0 0
33.0002 0 0
33.0972 0 0
33.0972 0 0
33.1941 0 0
33.1941 0 0
33.291 0 0
33.291 0 0
33.3879 0 0
33.3879 0 0
33.4849 0 0
33.4849 0 0
33.5818 0 0
33.5818 0 0
33.6787 0 0
33.6787 0 0
33.7756 0 0
33.7756 0 0
33.8726 0 0
33.8726 0 0
33.9695 0 0
33.9695 0 0
34.0664 0 0
34.0664 0 0
34.1633 0 0
34.1633 0 0
34.2603 0 0
34.2603 0 0
34.3572 0 0
34.3572 0 0
34.4541 0 0
34.4541 0 0
34.551 0 0
34.551 0 0
34.6479 0 0
34.6479 0 0
34.7449 0 0
34.7449 0 0
34.8418 0 0
34.8418 0 0
34.9387 0 0
34.9387 0 0
35.0356 0 0
35.0356 0 0
35.1326 0 0
35.1326 0 0
35.2295 0 0
35.2295 0 0
35.3264 0 0
35.3264 0 0
35.4233 0 0
35.4233 0 0
35.5203 0 0
35.5203 0 0
35.6172 0 0
35.6172 0 0
35.7141 0 0
35.7141 0 0
35.811 0 0
35.811 0 0
35.908 0 0
35.908 0 0
36.0049 0 0
36.0049 0 0
36.1018 0 0
36.1018 0 0
36.1987 0 0
36.1987 0 0
36.2957 0 0
36.2957 0 0
36.3926 0 0
36.3926 0 0
36.4895 0 0
36.4895 0 0
36.5864 0 0
36.5864 0 0
36.6833 0 0
36.6833 0 0
36.7803 0 0
36.7803 0 0
36.8772 0 0
36.8772 0 0
36.9741 0 0
36.9741 0 0
37.071 0 0
37.071 0 0
37.168 0 0
37.168 0 0
37.2649 0 0
37.2649 0 0
37.3618 0 0
37.3618 0 0
37.4587 0 0
37.4587 0 0
37.5557 0 0
37.5557 0 0
37.6526 0 0
37.6526 0 0
37.7495 0 0
37.7495 0 0
37.8464 0 0
37.8464 0 0
37.9434 0 0
37.9434 0 0
38.0403 0 0
38.0403 0 0
38.1372 0 0
38.1372 0 0
38.2341 0 0
38.2341 0 0
38.3311 0 0
38.3311 0 0
38.428 0 0
38.428 0 0
38.5249 0 0
38.5249 0 0
38.6218 0 0
38.6218 0 0
38.7188 0 0
38.7188 0 0
38.8157 0 0
38.8157 0 0
38.9126 0 0
38.9126 0 0
39.0095 0 0
39.0095 0 0
39.1064 0 0
39.1064 0 0
39.2034 0 0
39.2034 0 0
39.3003 0 0
39.3003 0 0
39.3972 0 0
39.3972 0 0
39.4941 0 0
39.4941 0 0
39.5911 0 0
39.5911 0 0
39.688 0 0
39.688 0 0
39.7849 0 0
39.7849 0 0
39.8818 0 0
39.8818 0 0
39.9788 0 0
39.9788 0 0
40.0757 0 0
40.0757 0 0
40.1726 0 0
40.1726 0 0
40.2695 0 0
40.2695 0 0
40.3665 0 0
40.3665 0 0
40.4634 0 0
40.4634 0 0
40.5603 0 0
40.5603 0 0
40.6572 0 0
40.6572 0 0
40.7542 0 0
40.7542 0 0
40.8511 0 0
40.8511 0 0
40.948 0 0
40.948 0 0
41.0449 0 0
41.0449 0 0
41.1418 0 0
41.1418 0 0
41.2388 0 0
41.2388 0 0
41.3357 0 0
41.3357 0 0
41.4326 0 0
41.4326 0 0
41.5295 0 0
41.5295 0 0
[...]
POINT_DATA 4096
SCALARS solution_0 double 1
LOOKUP_TABLE default
8.45284e+12 8.2777e+12 8.2777e+12 8.13003e+12 8.13003e+12 8.00426e+12 8.00426e+12 7.89612e+12 7.89612e+12 7.80229e+12 7.80229e+12 7.72017e+12 7.72017e+12 7.64769e+12 7.64769e+12 7.58319e+12 7.58319e+12 7.52534e+12 7.52534e+12 7.47303e+12 7.47303e+12 7.42537e+12 7.42537e+12 7.38162e+12 7.38162e+12 7.34116e+12 7.34116e+12 7.30349e+12 7.30349e+12 7.26816e+12 7.26816e+12 7.23482e+12 7.23482e+12 7.20315e+12 7.20315e+12 7.17289e+12 7.17289e+12 7.14382e+12 7.14382e+12 7.11575e+12 7.11575e+12 7.08852e+12 7.08852e+12 7.06199e+12 7.06199e+12 7.03604e+12 7.03604e+12 7.01056e+12 7.01056e+12 6.98546e+12 6.98546e+12 6.96067e+12 6.96067e+12 6.93613e+12 6.93613e+12 6.91177e+12 6.91177e+12 6.88755e+12 6.88755e+12 6.86343e+12 6.86343e+12 6.83936e+12 6.83936e+12 6.81532e+12 6.81532e+12 6.79129e+12 6.79129e+12 6.76723e+12 6.76723e+12 6.74314e+12 6.74314e+12 6.71899e+12 6.71899e+12 6.69478e+12 6.69478e+12 6.67048e+12 6.67048e+12 6.6461e+12 6.6461e+12 6.62162e+12 6.62162e+12 6.59704e+12 6.59704e+12 6.57235e+12 6.57235e+12 6.54756e+12 6.54756e+12 6.52266e+12 6.52266e+12 6.49764e+12 6.49764e+12 6.47252e+12 6.47252e+12 6.44728e+12 6.44728e+12 6.42194e+12 6.42194e+12 6.39649e+12 6.39649e+12 6.37093e+12 6.37093e+12 6.34526e+12 6.34526e+12 6.3195e+12 6.3195e+12 6.29364e+12 6.29364e+12 6.26768e+12 6.26768e+12 6.24163e+12 6.24163e+12 6.2155e+12 6.2155e+12 6.18928e+12 6.18928e+12 6.16298e+12 6.16298e+12 6.13661e+12 6.13661e+12 6.11017e+12 6.11017e+12 6.08366e+12 6.08366e+12 6.05709e+12 6.05709e+12 6.03046e+12 6.03046e+12 6.00377e+12 6.00377e+12 5.97704e+12 5.97704e+12 5.95026e+12 5.95026e+12 5.92344e+12 5.92344e+12 5.89659e+12 5.89659e+12 5.8697e+12 5.8697e+12 5.84278e+12 5.84278e+12 5.81584e+12 5.81584e+12 5.78888e+12 5.78888e+12 5.7619e+12 5.7619e+12 5.73491e+12 5.73491e+12 5.70791e+12 5.70791e+12 5.6809e+12 5.6809e+12 5.6539e+12 5.6539e+12 5.62689e+12 5.62689e+12 5.59989e+12 5.59989e+12 5.57291e+12 5.57291e+12 5.54593e+12 5.54593e+12 5.51897e+12 5.51897e+12 5.49203e+12 5.49203e+12 5.46512e+12 5.46512e+12 5.43823e+12 5.43823e+12 5.41136e+12 5.41136e+12 5.38453e+12 5.38453e+12 5.35774e+12 5.35774e+12 5.33098e+12 5.33098e+12 5.30426e+12 5.30426e+12 5.27759e+12 5.27759e+12 5.25096e+12 5.25096e+12 5.22437e+12 5.22437e+12 5.19784e+12 5.19784e+12 5.17136e+12 5.17136e+12 5.14494e+12 5.14494e+12 5.11857e+12 5.11857e+12 5.09226e+12 5.09226e+12 5.06602e+12 5.06602e+12 5.03984e+12 5.03984e+12 5.01372e+12 5.01372e+12 4.98767e+12 4.98767e+12 4.96169e+12 4.96169e+12 4.93578e+12 4.93578e+12 4.90994e+12 4.90994e+12 4.88418e+12 4.88418e+12 4.8585e+12 4.8585e+12 4.83289e+12 4.83289e+12 4.80736e+12 4.80736e+12 4.78191e+12 4.78191e+12 4.75654e+12 4.75654e+12 4.73126e+12 4.73126e+12 4.70606e+12 4.70606e+12 4.68095e+12 4.68095e+12 4.65592e+12 4.65592e+12 4.63099e+12 4.63099e+12 4.60614e+12 4.60614e+12 4.58138e+12 4.58138e+12 4.55671e+12 4.55671e+12 4.53214e+12 4.53214e+12 4.50766e+12 4.50766e+12 4.48327e+12 4.48327e+12 4.45898e+12 4.45898e+12 4.43478e+12 4.43478e+12 4.41068e+12 4.41068e+12 4.38668e+12 4.38668e+12 4.36278e+12 4.36278e+12 4.33897e+12 4.33897e+12 4.31527e+12 4.31527e+12 4.29166e+12 4.29166e+12 4.26815e+12 4.26815e+12 4.24475e+12 4.24475e+12 4.22145e+12 4.22145e+12 4.19825e+12 4.19825e+12 4.17515e+12 4.17515e+12 4.15215e+12 4.15215e+12 4.12926e+12 4.12926e+12 4.10647e+12 4.10647e+12 4.08379e+12 4.08379e+12 4.06121e+12 4.06121e+12 4.03874e+12 4.03874e+12 4.01637e+12 4.01637e+12 3.9941e+12 3.9941e+12 3.97194e+12 3.97194e+12 3.94989e+12 3.94989e+12 3.92794e+12 3.92794e+12 3.9061e+12 3.9061e+12 3.88436e+12 3.88436e+12 3.86273e+12 3.86273e+12 3.84121e+12 3.84121e+12 3.81979e+12 3.81979e+12 3.79848e+12 3.79848e+12 3.77727e+12 3.77727e+12 3.75617e+12 3.75617e+12 3.73518e+12 3.73518e+12 3.71429e+12 3.71429e+12 3.69351e+12 3.69351e+12 3.67284e+12 3.67284e+12 3.65227e+12 3.65227e+12 3.63181e+12 3.63181e+12 3.61146e+12 3.61146e+12 3.59121e+12 3.59121e+12 3.57106e+12 3.57106e+12 3.55103e+12 3.55103e+12 3.53109e+12 3.53109e+12 3.51127e+12 3.51127e+12 3.49154e+12 3.49154e+12 3.47193e+12 3.47193e+12 3.45242e+12 3.45242e+12 3.43301e+12 3.43301e+12 3.41371e+12 3.41371e+12 3.39451e+12 3.39451e+12 3.37541e+12 3.37541e+12 3.35642e+12 3.35642e+12 3.33753e+12 3.33753e+12 3.31875e+12 3.31875e+12 3.30007e+12 3.30007e+12 3.28149e+12 3.28149e+12 3.26301e+12 3.26301e+12 3.24464e+12 3.24464e+12 3.22637e+12 3.22637e+12 3.2082e+12 3.2082e+12 3.19013e+12 3.19013e+12 3.17216e+12 3.17216e+12 3.15429e+12 3.15429e+12 3.13652e+12 3.13652e+12 3.11885e+12 3.11885e+12 3.10128e+12 3.10128e+12 3.08381e+12 3.08381e+12 3.06644e+12 3.06644e+12 3.04917e+12 3.04917e+12 3.03199e+12 3.03199e+12 3.01492e+12 3.01492e+12 2.99794e+12 2.99794e+12 2.98105e+12 2.98105e+12 2.96427e+12 2.96427e+12 2.94758e+12 2.94758e+12 2.93098e+12 2.93098e+12 2.91449e+12 2.91449e+12 2.89808e+12 2.89808e+12 2.88177e+12 2.88177e+12 2.86556e+12 2.86556e+12 2.84944e+12 2.84944e+12 2.83341e+12 2.83341e+12 2.81747e+12 2.81747e+12 2.80163e+12 2.80163e+12 2.78588e+12 2.78588e+12 2.77022e+12 2.77022e+12 2.75465e+12 2.75465e+12 2.73918e+12 2.73918e+12 2.72379e+12 2.72379e+12 2.7085e+12 2.7085e+12 2.69329e+12 2.69329e+12 2.67817e+12 2.67817e+12 2.66314e+12 2.66314e+12 2.6482e+12 2.6482e+12 2.63335e+12 2.63335e+12 2.61858e+12 2.61858e+12 2.60391e+12 2.60391e+12 2.58931e+12 2.58931e+12 2.57481e+12 2.57481e+12 2.56039e+12 2.56039e+12 2.54605e+12 2.54605e+12 2.5318e+12 2.5318e+12 2.51764e+12 2.51764e+12 2.50355e+12 2.50355e+12 2.48956e+12 2.48956e+12 2.47564e+12 2.47564e+12 2.46181e+12 2.46181e+12 2.44806e+12 2.44806e+12 2.43439e+12 2.43439e+12 2.4208e+12 2.4208e+12 2.40729e+12 2.40729e+12 2.39387e+12 2.39387e+12 2.38052e+12 2.38052e+12 2.36725e+12 2.36725e+12 2.35406e+12 2.35406e+12 2.34095e+12 2.34095e+12 2.32792e+12 2.32792e+12 2.31497e+12 2.31497e+12 2.30209e+12 2.30209e+12 2.28929e+12 2.28929e+12 2.27657e+12 2.27657e+12 2.26392e+12 2.26392e+12 2.25135e+12 2.25135e+12 2.23885e+12 2.23885e+12 2.22643e+12 2.22643e+12 2.21408e+12 2.21408e+12 2.20181e+12 2.20181e+12 2.18961e+12 2.18961e+12 2.17748e+12 2.17748e+12 2.16543e+12 2.16543e+12 2.15344e+12 2.15344e+12 2.14153e+12 2.14153e+12 2.12969e+12 2.12969e+12 2.11792e+12 2.11792e+12 2.10622e+12 2.10622e+12 2.0946e+12 2.0946e+12 2.08304e+12 2.08304e+12 2.07155e+12 2.07155e+12 2.06013e+12 2.06013e+12 2.04877e+12 2.04877e+12 2.03749e+12 2.03749e+12 2.02627e+12 2.02627e+12 2.01512e+12 2.01512e+12 2.00404e+12 2.00404e+12 1.99302e+12 1.99302e+12 1.98207e+12 1.98207e+12 1.97118e+12 1.97118e+12 1.96036e+12 1.96036e+12 1.9496e+12 1.9496e+12 1.93891e+12 1.93891e+12 1.92828e+12 1.92828e+12 1.91772e+12 1.91772e+12 1.90722e+12 1.90722e+12 1.89678e+12 1.89678e+12 1.8864e+12 1.8864e+12 1.87609e+12 1.87609e+12 1.86583e+12 1.86583e+12 1.85564e+12 1.85564e+12 1.84551e+12 1.84551e+12 1.83544e+12 1.83544e+12 1.82543e+12 1.82543e+12 1.81548e+12 1.81548e+12 1.80559e+12 1.80559e+12 1.79575e+12 1.79575e+12 1.78598e+12 1.78598e+12 1.77626e+12 1.77626e+12 1.7666e+12 1.7666e+12 1.757e+12 1.757e+12 1.74746e+12 1.74746e+12 1.73797e+12 1.73797e+12 1.72854e+12 1.72854e+12 1.71917e+12 1.71917e+12 1.70985e+12 1.70985e+12 1.70058e+12 1.70058e+12 1.69137e+12 1.69137e+12 1.68222e+12 1.68222e+12 1.67312e+12 1.67312e+12 1.66407e+12 1.66407e+12 1.65508e+12 1.65508e+12 1.64614e+12 1.64614e+12 1.63725e+12 1.63725e+12 1.62842e+12 1.62842e+12 1.61963e+12 1.61963e+12 1.6109e+12 1.6109e+12 1.60222e+12 1.60222e+12 1.59359e+12 1.59359e+12 1.58502e+12 1.58502e+12 1.57649e+12 1.57649e+12 1.56801e+12 1.56801e+12 1.55959e+12 1.55959e+12 1.55121e+12 1.55121e+12 1.54288e+12 1.54288e+12 1.5346e+12 1.5346e+12 1.52637e+12 1.52637e+12 1.51819e+12 1.51819e+12 1.51005e+12 1.51005e+12 1.50197e+12 1.50197e+12 1.49393e+12 1.49393e+12 1.48594e+12 1.48594e+12 1.47799e+12 1.47799e+12 1.47009e+12 1.47009e+12 1.46224e+12 1.46224e+12 1.45443e+12 1.45443e+12 1.44667e+12 1.44667e+12 1.43895e+12 1.43895e+12 1.43128e+12 1.43128e+12 1.42365e+12 1.42365e+12 1.41607e+12 1.41607e+12 1.40853e+12 1.40853e+12 1.40103e+12 1.40103e+12 1.39358e+12 1.39358e+12 1.38617e+12 1.38617e+12 1.3788e+12 1.3788e+12 1.37148e+12 1.37148e+12 1.3642e+12 1.3642e+12 1.35696e+12 1.35696e+12 1.34976e+12 1.34976e+12 1.34261e+12 1.34261e+12 1.33549e+12 1.33549e+12 1.32842e+12 1.32842e+12 1.32139e+12 1.32139e+12 1.31439e+12 1.31439e+12 1.30744e+12 1.30744e+12 1.30053e+12 1.30053e+12 1.29366e+12 1.29366e+12 1.28682e+12 1.28682e+12 1.28003e+12 1.28003e+12 1.27327e+12 1.27327e+12 1.26656e+12 1.26656e+12 1.25988e+12 1.25988e+12 1.25324e+12 1.25324e+12 1.24664e+12 1.24664e+12 1.24007e+12 1.24007e+12 1.23354e+12 1.23354e+12 1.22705e+12 1.22705e+12 1.2206e+12 1.2206e+12 1.21418e+12 1.21418e+12 1.2078e+12 1.2078e+12 1.20146e+12 1.20146e+12 1.19515e+12 1.19515e+12 1.18887e+12 1.18887e+12 1.18264e+12 1.18264e+12 1.17643e+12 1.17643e+12 1.17027e+12 1.17027e+12 1.16413e+12 1.16413e+12 1.15804e+12 1.15804e+12 1.15197e+12 1.15197e+12 1.14594e+12 1.14594e+12 1.13995e+12 1.13995e+12 1.13398e+12 1.13398e+12 1.12805e+12 1.12805e+12 1.12216e+12 1.12216e+12 1.1163e+12 1.1163e+12 1.11047e+12 1.11047e+12 1.10467e+12 1.10467e+12 1.0989e+12 1.0989e+12 1.09317e+12 1.09317e+12 1.08747e+12 1.08747e+12 1.0818e+12 1.0818e+12 1.07616e+12 1.07616e+12 1.07055e+12 1.07055e+12 1.06498e+12 1.06498e+12 1.05943e+12 1.05943e+12 1.05392e+12 1.05392e+12 1.04844e+12 1.04844e+12 1.04298e+12 1.04298e+12 1.03756e+12 1.03756e+12 1.03217e+12 1.03217e+12 1.0268e+12 1.0268e+12 1.02147e+12 1.02147e+12 1.01616e+12 1.01616e+12 1.01089e+12 1.01089e+12 1.00564e+12 1.00564e+12 1.00042e+12 1.00042e+12 9.95234e+11 9.95234e+11 9.90072e+11 9.90072e+11 9.84939e+11 9.84939e+11 9.79834e+11 9.79834e+11 9.74757e+11 9.74757e+11 9.69708e+11 9.69708e+11 9.64686e+11 9.64686e+11 9.59691e+11 9.59691e+11 9.54723e+11 9.54723e+11 9.49782e+11 9.49782e+11 9.44868e+11 9.44868e+11 9.39981e+11 9.39981e+11 9.3512e+11 9.3512e+11 9.30285e+11 9.30285e+11 9.25476e+11 9.25476e+11 9.20693e+11 9.20693e+11 9.15936e+11 9.15936e+11 9.11205e+11 9.11205e+11 9.06499e+11 9.06499e+11 9.01818e+11 9.01818e+11 8.97162e+11 8.97162e+11 8.92531e+11 8.92531e+11 8.87925e+11 8.87925e+11 8.83344e+11 8.83344e+11 8.78787e+11 8.78787e+11 8.74254e+11 8.74254e+11 8.69745e+11 8.69745e+11 8.65261e+11 8.65261e+11 8.608e+11 8.608e+11 8.56363e+11 8.56363e+11 8.51949e+11 8.51949e+11 8.47559e+11 8.47559e+11 8.43192e+11 8.43192e+11 8.38848e+11 8.38848e+11 8.34527e+11 8.34527e+11 8.30228e+11 8.30228e+11 8.25953e+11 8.25953e+11 8.217e+11 8.217e+11 8.17469e+11 8.17469e+11 8.1326e+11 8.1326e+11 8.09074e+11 8.09074e+11 8.04909e+11 8.04909e+11 8.00767e+11 8.00767e+11 7.96645e+11 7.96645e+11 7.92546e+11 7.92546e+11 7.88468e+11 7.88468e+11 7.84411e+11 7.84411e+11 7.80375e+11 7.80375e+11 7.7636e+11 7.7636e+11 7.72366e+11 7.72366e+11 7.68393e+11 7.68393e+11 7.6444e+11 7.6444e+11 7.60508e+11 7.60508e+11 7.56596e+11 7.56596e+11 7.52704e+11 7.52704e+11 7.48832e+11 7.48832e+11 7.4498e+11 7.4498e+11 7.41148e+11 7.41148e+11 7.37336e+11 7.37336e+11 7.33543e+11 7.33543e+11 7.2977e+11 7.2977e+11 7.26016e+11 7.26016e+11 7.22282e+11 7.22282e+11 7.18566e+11 7.18566e+11 7.1487e+11 7.1487e+11 7.11192e+11 7.11192e+11 7.07533e+11 7.07533e+11 7.03892e+11 7.03892e+11 7.0027e+11 7.0027e+11 6.96667e+11 6.96667e+11 6.93082e+11 6.93082e+11 6.89515e+11 6.89515e+11 6.85966e+11 6.85966e+11 6.82434e+11 6.82434e+11 6.78921e+11 6.78921e+11 6.75426e+11 6.75426e+11 6.71948e+11 6.71948e+11 6.68487e+11 6.68487e+11 6.65044e+11 6.65044e+11 6.61618e+11 6.61618e+11 6.5821e+11 6.5821e+11 6.54818e+11 6.54818e+11 6.51444e+11 6.51444e+11 6.48086e+11 6.48086e+11 6.44745e+11 6.44745e+11 6.41421e+11 6.41421e+11 6.38113e+11 6.38113e+11 6.34822e+11 6.34822e+11 6.31547e+11 6.31547e+11 6.28288e+11 6.28288e+11 6.25046e+11 6.25046e+11 6.21819e+11 6.21819e+11 6.18609e+11 6.18609e+11 6.15414e+11 6.15414e+11 6.12235e+11 6.12235e+11 6.09072e+11 6.09072e+11 6.05925e+11 6.05925e+11 6.02793e+11 6.02793e+11 5.99676e+11 5.99676e+11 5.96574e+11 5.96574e+11 5.93488e+11 5.93488e+11 5.90417e+11 5.90417e+11 5.87361e+11 5.87361e+11 5.8432e+11 5.8432e+11 5.81294e+11 5.81294e+11 5.78282e+11 5.78282e+11 5.75285e+11 5.75285e+11 5.72303e+11 5.72303e+11 5.69335e+11 5.69335e+11 5.66381e+11 5.66381e+11 5.63442e+11 5.63442e+11 5.60517e+11 5.60517e+11 5.57607e+11 5.57607e+11 5.5471e+11 5.5471e+11 5.51827e+11 5.51827e+11 5.48958e+11 5.48958e+11 5.46103e+11 5.46103e+11 5.43262e+11 5.43262e+11 5.40434e+11 5.40434e+11 5.3762e+11 5.3762e+11 5.3482e+11 5.3482e+11 5.32032e+11 5.32032e+11 5.29258e+11 5.29258e+11 5.26498e+11 5.26498e+11 5.2375e+11 5.2375e+11 5.21016e+11 5.21016e+11 5.18295e+11 5.18295e+11 5.15586e+11 5.15586e+11 5.12891e+11 5.12891e+11 5.10208e+11 5.10208e+11 5.07538e+11 5.07538e+11 5.0488e+11 5.0488e+11 5.02235e+11 5.02235e+11 4.99603e+11 4.99603e+11 4.96983e+11 4.96983e+11 4.94376e+11 4.94376e+11 4.9178e+11 4.9178e+11 4.89197e+11 4.89197e+11 4.86626e+11 4.86626e+11 4.84067e+11 4.84067e+11 4.8152e+11 4.8152e+11 4.78985e+11 4.78985e+11 4.76462e+11 4.76462e+11 4.7395e+11 4.7395e+11 4.71451e+11 4.71451e+11 4.68963e+11 4.68963e+11 4.66486e+11 4.66486e+11 4.64021e+11 4.64021e+11 4.61568e+11 4.61568e+11 4.59126e+11 4.59126e+11 4.56695e+11 4.56695e+11 4.54275e+11 4.54275e+11 4.51867e+11 4.51867e+11 4.4947e+11 4.4947e+11 4.47083e+11 4.47083e+11 4.44708e+11 4.44708e+11 4.42344e+11 4.42344e+11 4.3999e+11 4.3999e+11 4.37648e+11 4.37648e+11 4.35316e+11 4.35316e+11 4.32995e+11 4.32995e+11 4.30684e+11 4.30684e+11 4.28384e+11 4.28384e+11 4.26095e+11 4.26095e+11 4.23816e+11 4.23816e+11 4.21547e+11 4.21547e+11 4.19289e+11 4.19289e+11 4.1704e+11 4.1704e+11 4.14803e+11 4.14803e+11 4.12575e+11 4.12575e+11 4.10357e+11 4.10357e+11 4.0815e+11 4.0815e+11 4.05952e+11 4.05952e+11 4.03764e+11 4.03764e+11 4.01587e+11 4.01587e+11 3.99419e+11 3.99419e+11 3.9726e+11 3.9726e+11 3.95112e+11 3.95112e+11 3.92973e+11 3.92973e+11 3.90844e+11 3.90844e+11 3.88724e+11 3.88724e+11 3.86614e+11 3.86614e+11 3.84513e+11 3.84513e+11 3.82421e+11 3.82421e+11 3.80339e+11 3.80339e+11 3.78267e+11 3.78267e+11 3.76203e+11 3.76203e+11 3.74149e+11 3.74149e+11 3.72103e+11 3.72103e+11 3.70067e+11 3.70067e+11 3.6804e+11 3.6804e+11 3.66022e+11 3.66022e+11 3.64013e+11 3.64013e+11 3.62012e+11 3.62012e+11 3.60021e+11 3.60021e+11 3.58038e+11 3.58038e+11 3.56064e+11 3.56064e+11 3.54098e+11 3.54098e+11 3.52142e+11 3.52142e+11 3.50194e+11 3.50194e+11 3.48254e+11 3.48254e+11 3.46323e+11 3.46323e+11 3.444e+11 3.444e+11 3.42486e+11 3.42486e+11 3.4058e+11 3.4058e+11 3.38683e+11 3.38683e+11 3.36793e+11 3.36793e+11 3.34912e+11 3.34912e+11 3.3304e+11 3.3304e+11 3.31175e+11 3.31175e+11 3.29318e+11 3.29318e+11 3.2747e+11 3.2747e+11 3.25629e+11 3.25629e+11 3.23796e+11 3.23796e+11 3.21972e+11 3.21972e+11 3.20155e+11 3.20155e+11 3.18346e+11 3.18346e+11 3.16545e+11 3.16545e+11 3.14751e+11 3.14751e+11 3.12966e+11 3.12966e+11 3.11188e+11 3.11188e+11 3.09417e+11 3.09417e+11 3.07654e+11 3.07654e+11 3.05899e+11 3.05899e+11 3.04151e+11 3.04151e+11 3.02411e+11 3.02411e+11 3.00678e+11 3.00678e+11 2.98953e+11 2.98953e+11 2.97234e+11 2.97234e+11 2.95524e+11 2.95524e+11 2.9382e+11 2.9382e+11 2.92124e+11 2.92124e+11 2.90435e+11 2.90435e+11 2.88753e+11 2.88753e+11 2.87078e+11 2.87078e+11 2.8541e+11 2.8541e+11 2.83749e+11 2.83749e+11 2.82096e+11 2.82096e+11 2.80449e+11 2.80449e+11 2.78809e+11 2.78809e+11 2.77176e+11 2.77176e+11 2.7555e+11 2.7555e+11 2.73931e+11 2.73931e+11 2.72318e+11 2.72318e+11 2.70713e+11 2.70713e+11 2.69114e+11 2.69114e+11 2.67521e+11 2.67521e+11 2.65936e+11 2.65936e+11 2.64357e+11 2.64357e+11 2.62784e+11 2.62784e+11 2.61219e+11 2.61219e+11 2.59659e+11 2.59659e+11 2.58106e+11 2.58106e+11 2.5656e+11 2.5656e+11 2.5502e+11 2.5502e+11 2.53486e+11 2.53486e+11 2.51959e+11 2.51959e+11 2.50438e+11 2.50438e+11 2.48924e+11 2.48924e+11 2.47415e+11 2.47415e+11 2.45913e+11 2.45913e+11 2.44417e+11 2.44417e+11 2.42927e+11 2.42927e+11 2.41443e+11 2.41443e+11 2.39966e+11 2.39966e+11 2.38494e+11 2.38494e+11 2.37029e+11 2.37029e+11 2.35569e+11 2.35569e+11 2.34116e+11 2.34116e+11 2.32668e+11 2.32668e+11 2.31226e+11 2.31226e+11 2.2979e+11 2.2979e+11 2.2836e+11 2.2836e+11 2.26936e+11 2.26936e+11 2.25518e+11 2.25518e+11 2.24105e+11 2.24105e+11 2.22699e+11 2.22699e+11 2.21297e+11 2.21297e+11 2.19902e+11 2.19902e+11 2.18512e+11 2.18512e+11 2.17128e+11 2.17128e+11 2.15749e+11 2.15749e+11 2.14376e+11 2.14376e+11 2.13009e+11 2.13009e+11 2.11647e+11 2.11647e+11 2.1029e+11 2.1029e+11 2.08939e+11 2.08939e+11 2.07594e+11 2.07594e+11 2.06254e+11 2.06254e+11 2.04919e+11 2.04919e+11 2.03589e+11 2.03589e+11 2.02265e+11 2.02265e+11 2.00946e+11 2.00946e+11 1.99633e+11 1.99633e+11 1.98324e+11 1.98324e+11 1.97021e+11 1.97021e+11 1.95723e+11 1.95723e+11 1.9443e+11 1.9443e+11 1.93143e+11 1.93143e+11 1.9186e+11 1.9186e+11 1.90583e+11 1.90583e+11 1.8931e+11 1.8931e+11 1.88043e+11 1.88043e+11 1.86781e+11 1.86781e+11 1.85523e+11 1.85523e+11 1.84271e+11 1.84271e+11 1.83024e+11 1.83024e+11 1.81781e+11 1.81781e+11 1.80544e+11 1.80544e+11 1.79311e+11 1.79311e+11 1.78083e+11 1.78083e+11 1.7686e+11 1.7686e+11 1.75642e+11 1.75642e+11 1.74428e+11 1.74428e+11 1.7322e+11 1.7322e+11 1.72016e+11 1.72016e+11 1.70816e+11 1.70816e+11 1.69622e+11 1.69622e+11 1.68432e+11 1.68432e+11 1.67247e+11 1.67247e+11 1.66066e+11 1.66066e+11 1.6489e+11 1.6489e+11 1.63719e+11 1.63719e+11 1.62552e+11 1.62552e+11 1.61389e+11 1.61389e+11 1.60231e+11 1.60231e+11 1.59078e+11 1.59078e+11 1.57929e+11 1.57929e+11 1.56785e+11 1.56785e+11 1.55645e+11 1.55645e+11 1.54509e+11 1.54509e+11 1.53378e+11 1.53378e+11 1.52251e+11 1.52251e+11 1.51128e+11 1.51128e+11 1.5001e+11 1.5001e+11 1.48896e+11 1.48896e+11 1.47787e+11 1.47787e+11 1.46681e+11 1.46681e+11 1.4558e+11 1.4558e+11 1.44483e+11 1.44483e+11 1.4339e+11 1.4339e+11 1.42302e+11 1.42302e+11 1.41218e+11 1.41218e+11 1.40137e+11 1.40137e+11 1.39061e+11 1.39061e+11 1.37989e+11 1.37989e+11 1.36921e+11 1.36921e+11 1.35858e+11 1.35858e+11 1.34798e+11 1.34798e+11 1.33742e+11 1.33742e+11 1.3269e+11 1.3269e+11 1.31643e+11 1.31643e+11 1.30599e+11 1.30599e+11 1.29559e+11 1.29559e+11 1.28523e+11 1.28523e+11 1.27491e+11 1.27491e+11 1.26463e+11 1.26463e+11 1.25439e+11 1.25439e+11 1.24418e+11 1.24418e+11 1.23402e+11 1.23402e+11 1.22389e+11 1.22389e+11 1.2138e+11 1.2138e+11 1.20375e+11 1.20375e+11 1.19374e+11 1.19374e+11 1.18377e+11 1.18377e+11 1.17383e+11 1.17383e+11 1.16393e+11 1.16393e+11 1.15406e+11 1.15406e+11 1.14424e+11 1.14424e+11 1.13445e+11 1.13445e+11 1.1247e+11 1.1247e+11 1.11498e+11 1.11498e+11 1.1053e+11 1.1053e+11 1.09565e+11 1.09565e+11 1.08605e+11 1.08605e+11 1.07647e+11 1.07647e+11 1.06694e+11 1.06694e+11 1.05743e+11 1.05743e+11 1.04797e+11 1.04797e+11 1.03854e+11 1.03854e+11 1.02914e+11 1.02914e+11 1.01978e+11 1.01978e+11 1.01045e+11 1.01045e+11 1.00116e+11 1.00116e+11 9.91901e+10 9.91901e+10 9.82677e+10 9.82677e+10 9.73487e+10 9.73487e+10 9.64331e+10 9.64331e+10 9.55209e+10 9.55209e+10 9.4612e+10 9.4612e+10 9.37065e+10 9.37065e+10 9.28043e+10 9.28043e+10 9.19054e+10 9.19054e+10 9.10098e+10 9.10098e+10 9.01175e+10 9.01175e+10 8.92285e+10 8.92285e+10 8.83427e+10 8.83427e+10 8.74602e+10 8.74602e+10 8.65808e+10 8.65808e+10 8.57047e+10 8.57047e+10 8.48318e+10 8.48318e+10 8.39621e+10 8.39621e+10 8.30956e+10 8.30956e+10 8.22321e+10 8.22321e+10 8.13719e+10 8.13719e+10 8.05148e+10 8.05148e+10 7.96607e+10 7.96607e+10 7.88098e+10 7.88098e+10 7.7962e+10 7.7962e+10 7.71172e+10 7.71172e+10 7.62755e+10 7.62755e+10 7.54369e+10 7.54369e+10 7.46013e+10 7.46013e+10 7.37687e+10 7.37687e+10 7.29391e+10 7.29391e+10 7.21125e+10 7.21125e+10 7.12889e+10 7.12889e+10 7.04682e+10 7.04682e+10 6.96505e+10 6.96505e+10 6.88358e+10 6.88358e+10 6.80239e+10 6.80239e+10 6.7215e+10 6.7215e+10 6.6409e+10 6.6409e+10 6.56059e+10 6.56059e+10 6.48057e+10 6.48057e+10 6.40083e+10 6.40083e+10 6.32138e+10 6.32138e+10 6.24222e+10 6.24222e+10 6.16333e+10 6.16333e+10 6.08473e+10 6.08473e+10 6.00641e+10 6.00641e+10 5.92837e+10 5.92837e+10 5.85061e+10 5.85061e+10 5.77312e+10 5.77312e+10 5.69591e+10 5.69591e+10 5.61897e+10 5.61897e+10 5.54231e+10 5.54231e+10 5.46592e+10 5.46592e+10 5.3898e+10 5.3898e+10 5.31395e+10 5.31395e+10 5.23837e+10 5.23837e+10 5.16306e+10 5.163