# vtk DataFile Version 3.0
#This file was generated by the deal.II library on 2020/9/6 at 2:59:42
ASCII
DATASET UNSTRUCTURED_GRID

POINTS 4096 double
1.5 0 0
1.59692 0 0
1.59692 0 0
1.69385 0 0
1.69385 0 0
1.79077 0 0
1.79077 0 0
1.8877 0 0
1.8877 0 0
1.98462 0 0
1.98462 0 0
2.08154 0 0
2.08154 0 0
2.17847 0 0
2.17847 0 0
2.27539 0 0
2.27539 0 0
2.37231 0 0
2.37231 0 0
2.46924 0 0
2.46924 0 0
2.56616 0 0
2.56616 0 0
2.66309 0 0
2.66309 0 0
2.76001 0 0
2.76001 0 0
2.85693 0 0
2.85693 0 0
2.95386 0 0
2.95386 0 0
3.05078 0 0
3.05078 0 0
3.14771 0 0
3.14771 0 0
3.24463 0 0
3.24463 0 0
3.34155 0 0
3.34155 0 0
3.43848 0 0
3.43848 0 0
3.5354 0 0
3.5354 0 0
3.63232 0 0
3.63232 0 0
3.72925 0 0
3.72925 0 0
3.82617 0 0
3.82617 0 0
3.9231 0 0
3.9231 0 0
4.02002 0 0
4.02002 0 0
4.11694 0 0
4.11694 0 0
4.21387 0 0
4.21387 0 0
4.31079 0 0
4.31079 0 0
4.40771 0 0
4.40771 0 0
4.50464 0 0
4.50464 0 0
4.60156 0 0
4.60156 0 0
4.69849 0 0
4.69849 0 0
4.79541 0 0
4.79541 0 0
4.89233 0 0
4.89233 0 0
4.98926 0 0
4.98926 0 0
5.08618 0 0
5.08618 0 0
5.18311 0 0
5.18311 0 0
5.28003 0 0
5.28003 0 0
5.37695 0 0
5.37695 0 0
5.47388 0 0
5.47388 0 0
5.5708 0 0
5.5708 0 0
5.66772 0 0
5.66772 0 0
5.76465 0 0
5.76465 0 0
5.86157 0 0
5.86157 0 0
5.9585 0 0
5.9585 0 0
6.05542 0 0
6.05542 0 0
6.15234 0 0
6.15234 0 0
6.24927 0 0
6.24927 0 0
6.34619 0 0
6.34619 0 0
6.44312 0 0
6.44312 0 0
6.54004 0 0
6.54004 0 0
6.63696 0 0
6.63696 0 0
6.73389 0 0
6.73389 0 0
6.83081 0 0
6.83081 0 0
6.92773 0 0
6.92773 0 0
7.02466 0 0
7.02466 0 0
7.12158 0 0
7.12158 0 0
7.21851 0 0
7.21851 0 0
7.31543 0 0
7.31543 0 0
7.41235 0 0
7.41235 0 0
7.50928 0 0
7.50928 0 0
7.6062 0 0
7.6062 0 0
7.70312 0 0
7.70312 0 0
7.80005 0 0
7.80005 0 0
7.89697 0 0
7.89697 0 0
7.9939 0 0
7.9939 0 0
8.09082 0 0
8.09082 0 0
8.18774 0 0
8.18774 0 0
8.28467 0 0
8.28467 0 0
8.38159 0 0
8.38159 0 0
8.47852 0 0
8.47852 0 0
8.57544 0 0
8.57544 0 0
8.67236 0 0
8.67236 0 0
8.76929 0 0
8.76929 0 0
8.86621 0 0
8.86621 0 0
8.96313 0 0
8.96313 0 0
9.06006 0 0
9.06006 0 0
9.15698 0 0
9.15698 0 0
9.25391 0 0
9.25391 0 0
9.35083 0 0
9.35083 0 0
9.44775 0 0
9.44775 0 0
9.54468 0 0
9.54468 0 0
9.6416 0 0
9.6416 0 0
9.73853 0 0
9.73853 0 0
9.83545 0 0
9.83545 0 0
9.93237 0 0
9.93237 0 0
10.0293 0 0
10.0293 0 0
10.1262 0 0
10.1262 0 0
10.2231 0 0
10.2231 0 0
10.3201 0 0
10.3201 0 0
10.417 0 0
10.417 0 0
10.5139 0 0
10.5139 0 0
10.6108 0 0
10.6108 0 0
10.7078 0 0
10.7078 0 0
10.8047 0 0
10.8047 0 0
10.9016 0 0
10.9016 0 0
10.9985 0 0
10.9985 0 0
11.0955 0 0
11.0955 0 0
11.1924 0 0
11.1924 0 0
11.2893 0 0
11.2893 0 0
11.3862 0 0
11.3862 0 0
11.4832 0 0
11.4832 0 0
11.5801 0 0
11.5801 0 0
11.677 0 0
11.677 0 0
11.7739 0 0
11.7739 0 0
11.8708 0 0
11.8708 0 0
11.9678 0 0
11.9678 0 0
12.0647 0 0
12.0647 0 0
12.1616 0 0
12.1616 0 0
12.2585 0 0
12.2585 0 0
12.3555 0 0
12.3555 0 0
12.4524 0 0
12.4524 0 0
12.5493 0 0
12.5493 0 0
12.6462 0 0
12.6462 0 0
12.7432 0 0
12.7432 0 0
12.8401 0 0
12.8401 0 0
12.937 0 0
12.937 0 0
13.0339 0 0
13.0339 0 0
13.1309 0 0
13.1309 0 0
13.2278 0 0
13.2278 0 0
13.3247 0 0
13.3247 0 0
13.4216 0 0
13.4216 0 0
13.5186 0 0
13.5186 0 0
13.6155 0 0
13.6155 0 0
13.7124 0 0
13.7124 0 0
13.8093 0 0
13.8093 0 0
13.9062 0 0
13.9062 0 0
14.0032 0 0
14.0032 0 0
14.1001 0 0
14.1001 0 0
14.197 0 0
14.197 0 0
14.2939 0 0
14.2939 0 0
14.3909 0 0
14.3909 0 0
14.4878 0 0
14.4878 0 0
14.5847 0 0
14.5847 0 0
14.6816 0 0
14.6816 0 0
14.7786 0 0
14.7786 0 0
14.8755 0 0
14.8755 0 0
14.9724 0 0
14.9724 0 0
15.0693 0 0
15.0693 0 0
15.1663 0 0
15.1663 0 0
15.2632 0 0
15.2632 0 0
15.3601 0 0
15.3601 0 0
15.457 0 0
15.457 0 0
15.554 0 0
15.554 0 0
15.6509 0 0
15.6509 0 0
15.7478 0 0
15.7478 0 0
15.8447 0 0
15.8447 0 0
15.9417 0 0
15.9417 0 0
16.0386 0 0
16.0386 0 0
16.1355 0 0
16.1355 0 0
16.2324 0 0
16.2324 0 0
16.3293 0 0
16.3293 0 0
16.4263 0 0
16.4263 0 0
16.5232 0 0
16.5232 0 0
16.6201 0 0
16.6201 0 0
16.717 0 0
16.717 0 0
16.814 0 0
16.814 0 0
16.9109 0 0
16.9109 0 0
17.0078 0 0
17.0078 0 0
17.1047 0 0
17.1047 0 0
17.2017 0 0
17.2017 0 0
17.2986 0 0
17.2986 0 0
17.3955 0 0
17.3955 0 0
17.4924 0 0
17.4924 0 0
17.5894 0 0
17.5894 0 0
17.6863 0 0
17.6863 0 0
17.7832 0 0
17.7832 0 0
17.8801 0 0
17.8801 0 0
17.9771 0 0
17.9771 0 0
18.074 0 0
18.074 0 0
18.1709 0 0
18.1709 0 0
18.2678 0 0
18.2678 0 0
18.3647 0 0
18.3647 0 0
18.4617 0 0
18.4617 0 0
18.5586 0 0
18.5586 0 0
18.6555 0 0
18.6555 0 0
18.7524 0 0
18.7524 0 0
18.8494 0 0
18.8494 0 0
18.9463 0 0
18.9463 0 0
19.0432 0 0
19.0432 0 0
19.1401 0 0
19.1401 0 0
19.2371 0 0
19.2371 0 0
19.334 0 0
19.334 0 0
19.4309 0 0
19.4309 0 0
19.5278 0 0
19.5278 0 0
19.6248 0 0
19.6248 0 0
19.7217 0 0
19.7217 0 0
19.8186 0 0
19.8186 0 0
19.9155 0 0
19.9155 0 0
20.0125 0 0
20.0125 0 0
20.1094 0 0
20.1094 0 0
20.2063 0 0
20.2063 0 0
20.3032 0 0
20.3032 0 0
20.4001 0 0
20.4001 0 0
20.4971 0 0
20.4971 0 0
20.594 0 0
20.594 0 0
20.6909 0 0
20.6909 0 0
20.7878 0 0
20.7878 0 0
20.8848 0 0
20.8848 0 0
20.9817 0 0
20.9817 0 0
21.0786 0 0
21.0786 0 0
21.1755 0 0
21.1755 0 0
21.2725 0 0
21.2725 0 0
21.3694 0 0
21.3694 0 0
21.4663 0 0
21.4663 0 0
21.5632 0 0
21.5632 0 0
21.6602 0 0
21.6602 0 0
21.7571 0 0
21.7571 0 0
21.854 0 0
21.854 0 0
21.9509 0 0
21.9509 0 0
22.0479 0 0
22.0479 0 0
22.1448 0 0
22.1448 0 0
22.2417 0 0
22.2417 0 0
22.3386 0 0
22.3386 0 0
22.4355 0 0
22.4355 0 0
22.5325 0 0
22.5325 0 0
22.6294 0 0
22.6294 0 0
22.7263 0 0
22.7263 0 0
22.8232 0 0
22.8232 0 0
22.9202 0 0
22.9202 0 0
23.0171 0 0
23.0171 0 0
23.114 0 0
23.114 0 0
23.2109 0 0
23.2109 0 0
23.3079 0 0
23.3079 0 0
23.4048 0 0
23.4048 0 0
23.5017 0 0
23.5017 0 0
23.5986 0 0
23.5986 0 0
23.6956 0 0
23.6956 0 0
23.7925 0 0
23.7925 0 0
23.8894 0 0
23.8894 0 0
23.9863 0 0
23.9863 0 0
24.0833 0 0
24.0833 0 0
24.1802 0 0
24.1802 0 0
24.2771 0 0
24.2771 0 0
24.374 0 0
24.374 0 0
24.4709 0 0
24.4709 0 0
24.5679 0 0
24.5679 0 0
24.6648 0 0
24.6648 0 0
24.7617 0 0
24.7617 0 0
24.8586 0 0
24.8586 0 0
24.9556 0 0
24.9556 0 0
25.0525 0 0
25.0525 0 0
25.1494 0 0
25.1494 0 0
25.2463 0 0
25.2463 0 0
25.3433 0 0
25.3433 0 0
25.4402 0 0
25.4402 0 0
25.5371 0 0
25.5371 0 0
25.634 0 0
25.634 0 0
25.731 0 0
25.731 0 0
25.8279 0 0
25.8279 0 0
25.9248 0 0
25.9248 0 0
26.0217 0 0
26.0217 0 0
26.1187 0 0
26.1187 0 0
26.2156 0 0
26.2156 0 0
26.3125 0 0
26.3125 0 0
26.4094 0 0
26.4094 0 0
26.5063 0 0
26.5063 0 0
26.6033 0 0
26.6033 0 0
26.7002 0 0
26.7002 0 0
26.7971 0 0
26.7971 0 0
26.894 0 0
26.894 0 0
26.991 0 0
26.991 0 0
27.0879 0 0
27.0879 0 0
27.1848 0 0
27.1848 0 0
27.2817 0 0
27.2817 0 0
27.3787 0 0
27.3787 0 0
27.4756 0 0
27.4756 0 0
27.5725 0 0
27.5725 0 0
27.6694 0 0
27.6694 0 0
27.7664 0 0
27.7664 0 0
27.8633 0 0
27.8633 0 0
27.9602 0 0
27.9602 0 0
28.0571 0 0
28.0571 0 0
28.1541 0 0
28.1541 0 0
28.251 0 0
28.251 0 0
28.3479 0 0
28.3479 0 0
28.4448 0 0
28.4448 0 0
28.5417 0 0
28.5417 0 0
28.6387 0 0
28.6387 0 0
28.7356 0 0
28.7356 0 0
28.8325 0 0
28.8325 0 0
28.9294 0 0
28.9294 0 0
29.0264 0 0
29.0264 0 0
29.1233 0 0
29.1233 0 0
29.2202 0 0
29.2202 0 0
29.3171 0 0
29.3171 0 0
29.4141 0 0
29.4141 0 0
29.511 0 0
29.511 0 0
29.6079 0 0
29.6079 0 0
29.7048 0 0
29.7048 0 0
29.8018 0 0
29.8018 0 0
29.8987 0 0
29.8987 0 0
29.9956 0 0
29.9956 0 0
30.0925 0 0
30.0925 0 0
30.1895 0 0
30.1895 0 0
30.2864 0 0
30.2864 0 0
30.3833 0 0
30.3833 0 0
30.4802 0 0
30.4802 0 0
30.5771 0 0
30.5771 0 0
30.6741 0 0
30.6741 0 0
30.771 0 0
30.771 0 0
30.8679 0 0
30.8679 0 0
30.9648 0 0
30.9648 0 0
31.0618 0 0
31.0618 0 0
31.1587 0 0
31.1587 0 0
31.2556 0 0
31.2556 0 0
31.3525 0 0
31.3525 0 0
31.4495 0 0
31.4495 0 0
31.5464 0 0
31.5464 0 0
31.6433 0 0
31.6433 0 0
31.7402 0 0
31.7402 0 0
31.8372 0 0
31.8372 0 0
31.9341 0 0
31.9341 0 0
32.031 0 0
32.031 0 0
32.1279 0 0
32.1279 0 0
32.2249 0 0
32.2249 0 0
32.3218 0 0
32.3218 0 0
32.4187 0 0
32.4187 0 0
32.5156 0 0
32.5156 0 0
32.6125 0 0
32.6125 0 0
32.7095 0 0
32.7095 0 0
32.8064 0 0
32.8064 0 0
32.9033 0 0
32.9033 0 0
33.0002 0 0
33.0002 0 0
33.0972 0 0
33.0972 0 0
33.1941 0 0
33.1941 0 0
33.291 0 0
33.291 0 0
33.3879 0 0
33.3879 0 0
33.4849 0 0
33.4849 0 0
33.5818 0 0
33.5818 0 0
33.6787 0 0
33.6787 0 0
33.7756 0 0
33.7756 0 0
33.8726 0 0
33.8726 0 0
33.9695 0 0
33.9695 0 0
34.0664 0 0
34.0664 0 0
34.1633 0 0
34.1633 0 0
34.2603 0 0
34.2603 0 0
34.3572 0 0
34.3572 0 0
34.4541 0 0
34.4541 0 0
34.551 0 0
34.551 0 0
34.6479 0 0
34.6479 0 0
34.7449 0 0
34.7449 0 0
34.8418 0 0
34.8418 0 0
34.9387 0 0
34.9387 0 0
35.0356 0 0
35.0356 0 0
35.1326 0 0
35.1326 0 0
35.2295 0 0
35.2295 0 0
35.3264 0 0
35.3264 0 0
35.4233 0 0
35.4233 0 0
35.5203 0 0
35.5203 0 0
35.6172 0 0
35.6172 0 0
35.7141 0 0
35.7141 0 0
35.811 0 0
35.811 0 0
35.908 0 0
35.908 0 0
36.0049 0 0
36.0049 0 0
36.1018 0 0
36.1018 0 0
36.1987 0 0
36.1987 0 0
36.2957 0 0
36.2957 0 0
36.3926 0 0
36.3926 0 0
36.4895 0 0
36.4895 0 0
36.5864 0 0
36.5864 0 0
36.6833 0 0
36.6833 0 0
36.7803 0 0
36.7803 0 0
36.8772 0 0
36.8772 0 0
36.9741 0 0
36.9741 0 0
37.071 0 0
37.071 0 0
37.168 0 0
37.168 0 0
37.2649 0 0
37.2649 0 0
37.3618 0 0
37.3618 0 0
37.4587 0 0
37.4587 0 0
37.5557 0 0
37.5557 0 0
37.6526 0 0
37.6526 0 0
37.7495 0 0
37.7495 0 0
37.8464 0 0
37.8464 0 0
37.9434 0 0
37.9434 0 0
38.0403 0 0
38.0403 0 0
38.1372 0 0
38.1372 0 0
38.2341 0 0
38.2341 0 0
38.3311 0 0
38.3311 0 0
38.428 0 0
38.428 0 0
38.5249 0 0
38.5249 0 0
38.6218 0 0
38.6218 0 0
38.7188 0 0
38.7188 0 0
38.8157 0 0
38.8157 0 0
38.9126 0 0
38.9126 0 0
39.0095 0 0
39.0095 0 0
39.1064 0 0
39.1064 0 0
39.2034 0 0
39.2034 0 0
39.3003 0 0
39.3003 0 0
39.3972 0 0
39.3972 0 0
39.4941 0 0
39.4941 0 0
39.5911 0 0
39.5911 0 0
39.688 0 0
39.688 0 0
39.7849 0 0
39.7849 0 0
39.8818 0 0
39.8818 0 0
39.9788 0 0
39.9788 0 0
40.0757 0 0
40.0757 0 0
40.1726 0 0
40.1726 0 0
40.2695 0 0
40.2695 0 0
40.3665 0 0
40.3665 0 0
40.4634 0 0
40.4634 0 0
40.5603 0 0
40.5603 0 0
40.6572 0 0
40.6572 0 0
40.7542 0 0
40.7542 0 0
40.8511 0 0
40.8511 0 0
40.948 0 0
40.948 0 0
41.0449 0 0
41.0449 0 0
41.1418 0 0
41.1418 0 0
41.2388 0 0
41.2388 0 0
41.3357 0 0
41.3357 0 0
41.4326 0 0
41.4326 0 0
41.5295 0 0
41.5295 0 0
[...]
POINT_DATA 4096
SCALARS solution_0 double 1
LOOKUP_TABLE default
6.99661e+07 6.85165e+07 6.85165e+07 6.72942e+07 6.72942e+07 6.62532e+07 6.62532e+07 6.53581e+07 6.53581e+07 6.45814e+07 6.45814e+07 6.39017e+07 6.39017e+07 6.33018e+07 6.33018e+07 6.27679e+07 6.27679e+07 6.2289e+07 6.2289e+07 6.1856e+07 6.1856e+07 6.14615e+07 6.14615e+07 6.10994e+07 6.10994e+07 6.07645e+07 6.07645e+07 6.04527e+07 6.04527e+07 6.01603e+07 6.01603e+07 5.98843e+07 5.98843e+07 5.96221e+07 5.96221e+07 5.93717e+07 5.93717e+07 5.91311e+07 5.91311e+07 5.88988e+07 5.88988e+07 5.86734e+07 5.86734e+07 5.84538e+07 5.84538e+07 5.82389e+07 5.82389e+07 5.8028e+07 5.8028e+07 5.78203e+07 5.78203e+07 5.76151e+07 5.76151e+07 5.7412e+07 5.7412e+07 5.72103e+07 5.72103e+07 5.70099e+07 5.70099e+07 5.68102e+07 5.68102e+07 5.6611e+07 5.6611e+07 5.6412e+07 5.6412e+07 5.62131e+07 5.62131e+07 5.6014e+07 5.6014e+07 5.58145e+07 5.58145e+07 5.56147e+07 5.56147e+07 5.54142e+07 5.54142e+07 5.52131e+07 5.52131e+07 5.50113e+07 5.50113e+07 5.48087e+07 5.48087e+07 5.46052e+07 5.46052e+07 5.44009e+07 5.44009e+07 5.41957e+07 5.41957e+07 5.39896e+07 5.39896e+07 5.37825e+07 5.37825e+07 5.35745e+07 5.35745e+07 5.33657e+07 5.33657e+07 5.31559e+07 5.31559e+07 5.29452e+07 5.29452e+07 5.27336e+07 5.27336e+07 5.25212e+07 5.25212e+07 5.23079e+07 5.23079e+07 5.20939e+07 5.20939e+07 5.1879e+07 5.1879e+07 5.16634e+07 5.16634e+07 5.14471e+07 5.14471e+07 5.12301e+07 5.12301e+07 5.10124e+07 5.10124e+07 5.07942e+07 5.07942e+07 5.05753e+07 5.05753e+07 5.03559e+07 5.03559e+07 5.01359e+07 5.01359e+07 4.99155e+07 4.99155e+07 4.96946e+07 4.96946e+07 4.94734e+07 4.94734e+07 4.92517e+07 4.92517e+07 4.90297e+07 4.90297e+07 4.88074e+07 4.88074e+07 4.85848e+07 4.85848e+07 4.8362e+07 4.8362e+07 4.8139e+07 4.8139e+07 4.79159e+07 4.79159e+07 4.76926e+07 4.76926e+07 4.74691e+07 4.74691e+07 4.72457e+07 4.72457e+07 4.70221e+07 4.70221e+07 4.67986e+07 4.67986e+07 4.65751e+07 4.65751e+07 4.63516e+07 4.63516e+07 4.61282e+07 4.61282e+07 4.5905e+07 4.5905e+07 4.56818e+07 4.56818e+07 4.54588e+07 4.54588e+07 4.5236e+07 4.5236e+07 4.50134e+07 4.50134e+07 4.47911e+07 4.47911e+07 4.4569e+07 4.4569e+07 4.43472e+07 4.43472e+07 4.41257e+07 4.41257e+07 4.39046e+07 4.39046e+07 4.36838e+07 4.36838e+07 4.34634e+07 4.34634e+07 4.32433e+07 4.32433e+07 4.30237e+07 4.30237e+07 4.28046e+07 4.28046e+07 4.25858e+07 4.25858e+07 4.23676e+07 4.23676e+07 4.21498e+07 4.21498e+07 4.19326e+07 4.19326e+07 4.17159e+07 4.17159e+07 4.14997e+07 4.14997e+07 4.12841e+07 4.12841e+07 4.1069e+07 4.1069e+07 4.08546e+07 4.08546e+07 4.06407e+07 4.06407e+07 4.04275e+07 4.04275e+07 4.02149e+07 4.02149e+07 4.00029e+07 4.00029e+07 3.97916e+07 3.97916e+07 3.9581e+07 3.9581e+07 3.9371e+07 3.9371e+07 3.91617e+07 3.91617e+07 3.89532e+07 3.89532e+07 3.87453e+07 3.87453e+07 3.85381e+07 3.85381e+07 3.83317e+07 3.83317e+07 3.8126e+07 3.8126e+07 3.79211e+07 3.79211e+07 3.77169e+07 3.77169e+07 3.75135e+07 3.75135e+07 3.73109e+07 3.73109e+07 3.7109e+07 3.7109e+07 3.6908e+07 3.6908e+07 3.67077e+07 3.67077e+07 3.65082e+07 3.65082e+07 3.63096e+07 3.63096e+07 3.61117e+07 3.61117e+07 3.59147e+07 3.59147e+07 3.57184e+07 3.57184e+07 3.5523e+07 3.5523e+07 3.53285e+07 3.53285e+07 3.51348e+07 3.51348e+07 3.49419e+07 3.49419e+07 3.47499e+07 3.47499e+07 3.45587e+07 3.45587e+07 3.43683e+07 3.43683e+07 3.41788e+07 3.41788e+07 3.39902e+07 3.39902e+07 3.38025e+07 3.38025e+07 3.36156e+07 3.36156e+07 3.34295e+07 3.34295e+07 3.32444e+07 3.32444e+07 3.30601e+07 3.30601e+07 3.28767e+07 3.28767e+07 3.26941e+07 3.26941e+07 3.25124e+07 3.25124e+07 3.23317e+07 3.23317e+07 3.21517e+07 3.21517e+07 3.19727e+07 3.19727e+07 3.17945e+07 3.17945e+07 3.16173e+07 3.16173e+07 3.14409e+07 3.14409e+07 3.12653e+07 3.12653e+07 3.10907e+07 3.10907e+07 3.09169e+07 3.09169e+07 3.07441e+07 3.07441e+07 3.05721e+07 3.05721e+07 3.04009e+07 3.04009e+07 3.02307e+07 3.02307e+07 3.00613e+07 3.00613e+07 2.98928e+07 2.98928e+07 2.97252e+07 2.97252e+07 2.95585e+07 2.95585e+07 2.93926e+07 2.93926e+07 2.92277e+07 2.92277e+07 2.90635e+07 2.90635e+07 2.89003e+07 2.89003e+07 2.87379e+07 2.87379e+07 2.85764e+07 2.85764e+07 2.84158e+07 2.84158e+07 2.8256e+07 2.8256e+07 2.80971e+07 2.80971e+07 2.79391e+07 2.79391e+07 2.77819e+07 2.77819e+07 2.76255e+07 2.76255e+07 2.747e+07 2.747e+07 2.73154e+07 2.73154e+07 2.71616e+07 2.71616e+07 2.70087e+07 2.70087e+07 2.68566e+07 2.68566e+07 2.67054e+07 2.67054e+07 2.6555e+07 2.6555e+07 2.64054e+07 2.64054e+07 2.62567e+07 2.62567e+07 2.61088e+07 2.61088e+07 2.59617e+07 2.59617e+07 2.58154e+07 2.58154e+07 2.567e+07 2.567e+07 2.55254e+07 2.55254e+07 2.53816e+07 2.53816e+07 2.52387e+07 2.52387e+07 2.50965e+07 2.50965e+07 2.49551e+07 2.49551e+07 2.48146e+07 2.48146e+07 2.46749e+07 2.46749e+07 2.45359e+07 2.45359e+07 2.43978e+07 2.43978e+07 2.42604e+07 2.42604e+07 2.41239e+07 2.41239e+07 2.39881e+07 2.39881e+07 2.38531e+07 2.38531e+07 2.37189e+07 2.37189e+07 2.35854e+07 2.35854e+07 2.34528e+07 2.34528e+07 2.33209e+07 2.33209e+07 2.31897e+07 2.31897e+07 2.30594e+07 2.30594e+07 2.29297e+07 2.29297e+07 2.28009e+07 2.28009e+07 2.26728e+07 2.26728e+07 2.25454e+07 2.25454e+07 2.24188e+07 2.24188e+07 2.2293e+07 2.2293e+07 2.21678e+07 2.21678e+07 2.20434e+07 2.20434e+07 2.19198e+07 2.19198e+07 2.17968e+07 2.17968e+07 2.16746e+07 2.16746e+07 2.15531e+07 2.15531e+07 2.14323e+07 2.14323e+07 2.13123e+07 2.13123e+07 2.11929e+07 2.11929e+07 2.10742e+07 2.10742e+07 2.09563e+07 2.09563e+07 2.0839e+07 2.0839e+07 2.07225e+07 2.07225e+07 2.06066e+07 2.06066e+07 2.04914e+07 2.04914e+07 2.03769e+07 2.03769e+07 2.02631e+07 2.02631e+07 2.015e+07 2.015e+07 2.00375e+07 2.00375e+07 1.99257e+07 1.99257e+07 1.98146e+07 1.98146e+07 1.97041e+07 1.97041e+07 1.95943e+07 1.95943e+07 1.94851e+07 1.94851e+07 1.93766e+07 1.93766e+07 1.92687e+07 1.92687e+07 1.91615e+07 1.91615e+07 1.90549e+07 1.90549e+07 1.8949e+07 1.8949e+07 1.88437e+07 1.88437e+07 1.8739e+07 1.8739e+07 1.86349e+07 1.86349e+07 1.85315e+07 1.85315e+07 1.84287e+07 1.84287e+07 1.83265e+07 1.83265e+07 1.82249e+07 1.82249e+07 1.81239e+07 1.81239e+07 1.80235e+07 1.80235e+07 1.79237e+07 1.79237e+07 1.78245e+07 1.78245e+07 1.77259e+07 1.77259e+07 1.76279e+07 1.76279e+07 1.75305e+07 1.75305e+07 1.74337e+07 1.74337e+07 1.73374e+07 1.73374e+07 1.72418e+07 1.72418e+07 1.71466e+07 1.71466e+07 1.70521e+07 1.70521e+07 1.69581e+07 1.69581e+07 1.68647e+07 1.68647e+07 1.67719e+07 1.67719e+07 1.66796e+07 1.66796e+07 1.65878e+07 1.65878e+07 1.64967e+07 1.64967e+07 1.6406e+07 1.6406e+07 1.63159e+07 1.63159e+07 1.62263e+07 1.62263e+07 1.61373e+07 1.61373e+07 1.60488e+07 1.60488e+07 1.59608e+07 1.59608e+07 1.58734e+07 1.58734e+07 1.57865e+07 1.57865e+07 1.57e+07 1.57e+07 1.56142e+07 1.56142e+07 1.55288e+07 1.55288e+07 1.54439e+07 1.54439e+07 1.53596e+07 1.53596e+07 1.52757e+07 1.52757e+07 1.51923e+07 1.51923e+07 1.51095e+07 1.51095e+07 1.50271e+07 1.50271e+07 1.49452e+07 1.49452e+07 1.48638e+07 1.48638e+07 1.47829e+07 1.47829e+07 1.47025e+07 1.47025e+07 1.46226e+07 1.46226e+07 1.45431e+07 1.45431e+07 1.44641e+07 1.44641e+07 1.43856e+07 1.43856e+07 1.43075e+07 1.43075e+07 1.42299e+07 1.42299e+07 1.41528e+07 1.41528e+07 1.40761e+07 1.40761e+07 1.39999e+07 1.39999e+07 1.39241e+07 1.39241e+07 1.38488e+07 1.38488e+07 1.37739e+07 1.37739e+07 1.36994e+07 1.36994e+07 1.36254e+07 1.36254e+07 1.35519e+07 1.35519e+07 1.34788e+07 1.34788e+07 1.34061e+07 1.34061e+07 1.33338e+07 1.33338e+07 1.32619e+07 1.32619e+07 1.31905e+07 1.31905e+07 1.31195e+07 1.31195e+07 1.3049e+07 1.3049e+07 1.29788e+07 1.29788e+07 1.2909e+07 1.2909e+07 1.28397e+07 1.28397e+07 1.27708e+07 1.27708e+07 1.27022e+07 1.27022e+07 1.26341e+07 1.26341e+07 1.25664e+07 1.25664e+07 1.24991e+07 1.24991e+07 1.24321e+07 1.24321e+07 1.23656e+07 1.23656e+07 1.22994e+07 1.22994e+07 1.22336e+07 1.22336e+07 1.21683e+07 1.21683e+07 1.21032e+07 1.21032e+07 1.20386e+07 1.20386e+07 1.19744e+07 1.19744e+07 1.19105e+07 1.19105e+07 1.1847e+07 1.1847e+07 1.17839e+07 1.17839e+07 1.17211e+07 1.17211e+07 1.16587e+07 1.16587e+07 1.15966e+07 1.15966e+07 1.1535e+07 1.1535e+07 1.14736e+07 1.14736e+07 1.14127e+07 1.14127e+07 1.1352e+07 1.1352e+07 1.12918e+07 1.12918e+07 1.12319e+07 1.12319e+07 1.11723e+07 1.11723e+07 1.11131e+07 1.11131e+07 1.10542e+07 1.10542e+07 1.09956e+07 1.09956e+07 1.09374e+07 1.09374e+07 1.08795e+07 1.08795e+07 1.0822e+07 1.0822e+07 1.07648e+07 1.07648e+07 1.07079e+07 1.07079e+07 1.06513e+07 1.06513e+07 1.05951e+07 1.05951e+07 1.05392e+07 1.05392e+07 1.04836e+07 1.04836e+07 1.04283e+07 1.04283e+07 1.03733e+07 1.03733e+07 1.03187e+07 1.03187e+07 1.02643e+07 1.02643e+07 1.02103e+07 1.02103e+07 1.01566e+07 1.01566e+07 1.01032e+07 1.01032e+07 1.005e+07 1.005e+07 9.99722e+06 9.99722e+06 9.94471e+06 9.94471e+06 9.89249e+06 9.89249e+06 9.84056e+06 9.84056e+06 9.78893e+06 9.78893e+06 9.7376e+06 9.7376e+06 9.68655e+06 9.68655e+06 9.63578e+06 9.63578e+06 9.58531e+06 9.58531e+06 9.53512e+06 9.53512e+06 9.48521e+06 9.48521e+06 9.43558e+06 9.43558e+06 9.38622e+06 9.38622e+06 9.33715e+06 9.33715e+06 9.28835e+06 9.28835e+06 9.23982e+06 9.23982e+06 9.19156e+06 9.19156e+06 9.14358e+06 9.14358e+06 9.09586e+06 9.09586e+06 9.0484e+06 9.0484e+06 9.00121e+06 9.00121e+06 8.95429e+06 8.95429e+06 8.90762e+06 8.90762e+06 8.86121e+06 8.86121e+06 8.81506e+06 8.81506e+06 8.76916e+06 8.76916e+06 8.72352e+06 8.72352e+06 8.67814e+06 8.67814e+06 8.633e+06 8.633e+06 8.58811e+06 8.58811e+06 8.54346e+06 8.54346e+06 8.49907e+06 8.49907e+06 8.45492e+06 8.45492e+06 8.41101e+06 8.41101e+06 8.36734e+06 8.36734e+06 8.32391e+06 8.32391e+06 8.28072e+06 8.28072e+06 8.23776e+06 8.23776e+06 8.19504e+06 8.19504e+06 8.15255e+06 8.15255e+06 8.1103e+06 8.1103e+06 8.06827e+06 8.06827e+06 8.02648e+06 8.02648e+06 7.98491e+06 7.98491e+06 7.94356e+06 7.94356e+06 7.90245e+06 7.90245e+06 7.86155e+06 7.86155e+06 7.82087e+06 7.82087e+06 7.78042e+06 7.78042e+06 7.74018e+06 7.74018e+06 7.70017e+06 7.70017e+06 7.66036e+06 7.66036e+06 7.62077e+06 7.62077e+06 7.5814e+06 7.5814e+06 7.54224e+06 7.54224e+06 7.50328e+06 7.50328e+06 7.46454e+06 7.46454e+06 7.426e+06 7.426e+06 7.38767e+06 7.38767e+06 7.34954e+06 7.34954e+06 7.31162e+06 7.31162e+06 7.2739e+06 7.2739e+06 7.23638e+06 7.23638e+06 7.19906e+06 7.19906e+06 7.16194e+06 7.16194e+06 7.12502e+06 7.12502e+06 7.08829e+06 7.08829e+06 7.05176e+06 7.05176e+06 7.01542e+06 7.01542e+06 6.97928e+06 6.97928e+06 6.94332e+06 6.94332e+06 6.90755e+06 6.90755e+06 6.87198e+06 6.87198e+06 6.83658e+06 6.83658e+06 6.80138e+06 6.80138e+06 6.76636e+06 6.76636e+06 6.73153e+06 6.73153e+06 6.69687e+06 6.69687e+06 6.6624e+06 6.6624e+06 6.62811e+06 6.62811e+06 6.594e+06 6.594e+06 6.56007e+06 6.56007e+06 6.52631e+06 6.52631e+06 6.49273e+06 6.49273e+06 6.45933e+06 6.45933e+06 6.42609e+06 6.42609e+06 6.39303e+06 6.39303e+06 6.36015e+06 6.36015e+06 6.32743e+06 6.32743e+06 6.29488e+06 6.29488e+06 6.2625e+06 6.2625e+06 6.23029e+06 6.23029e+06 6.19824e+06 6.19824e+06 6.16636e+06 6.16636e+06 6.13464e+06 6.13464e+06 6.10309e+06 6.10309e+06 6.07169e+06 6.07169e+06 6.04046e+06 6.04046e+06 6.00939e+06 6.00939e+06 5.97848e+06 5.97848e+06 5.94772e+06 5.94772e+06 5.91712e+06 5.91712e+06 5.88668e+06 5.88668e+06 5.8564e+06 5.8564e+06 5.82626e+06 5.82626e+06 5.79628e+06 5.79628e+06 5.76646e+06 5.76646e+06 5.73678e+06 5.73678e+06 5.70726e+06 5.70726e+06 5.67788e+06 5.67788e+06 5.64865e+06 5.64865e+06 5.61957e+06 5.61957e+06 5.59064e+06 5.59064e+06 5.56185e+06 5.56185e+06 5.53321e+06 5.53321e+06 5.50471e+06 5.50471e+06 5.47635e+06 5.47635e+06 5.44814e+06 5.44814e+06 5.42007e+06 5.42007e+06 5.39214e+06 5.39214e+06 5.36434e+06 5.36434e+06 5.33669e+06 5.33669e+06 5.30917e+06 5.30917e+06 5.28179e+06 5.28179e+06 5.25455e+06 5.25455e+06 5.22744e+06 5.22744e+06 5.20047e+06 5.20047e+06 5.17363e+06 5.17363e+06 5.14693e+06 5.14693e+06 5.12035e+06 5.12035e+06 5.09391e+06 5.09391e+06 5.0676e+06 5.0676e+06 5.04142e+06 5.04142e+06 5.01536e+06 5.01536e+06 4.98944e+06 4.98944e+06 4.96364e+06 4.96364e+06 4.93797e+06 4.93797e+06 4.91242e+06 4.91242e+06 4.887e+06 4.887e+06 4.86171e+06 4.86171e+06 4.83654e+06 4.83654e+06 4.81149e+06 4.81149e+06 4.78656e+06 4.78656e+06 4.76175e+06 4.76175e+06 4.73707e+06 4.73707e+06 4.7125e+06 4.7125e+06 4.68805e+06 4.68805e+06 4.66373e+06 4.66373e+06 4.63952e+06 4.63952e+06 4.61542e+06 4.61542e+06 4.59145e+06 4.59145e+06 4.56759e+06 4.56759e+06 4.54384e+06 4.54384e+06 4.52021e+06 4.52021e+06 4.49669e+06 4.49669e+06 4.47328e+06 4.47328e+06 4.44999e+06 4.44999e+06 4.42681e+06 4.42681e+06 4.40374e+06 4.40374e+06 4.38078e+06 4.38078e+06 4.35793e+06 4.35793e+06 4.33519e+06 4.33519e+06 4.31256e+06 4.31256e+06 4.29003e+06 4.29003e+06 4.26761e+06 4.26761e+06 4.2453e+06 4.2453e+06 4.22309e+06 4.22309e+06 4.20099e+06 4.20099e+06 4.179e+06 4.179e+06 4.1571e+06 4.1571e+06 4.13532e+06 4.13532e+06 4.11363e+06 4.11363e+06 4.09205e+06 4.09205e+06 4.07056e+06 4.07056e+06 4.04918e+06 4.04918e+06 4.0279e+06 4.0279e+06 4.00672e+06 4.00672e+06 3.98564e+06 3.98564e+06 3.96466e+06 3.96466e+06 3.94377e+06 3.94377e+06 3.92298e+06 3.92298e+06 3.90229e+06 3.90229e+06 3.8817e+06 3.8817e+06 3.8612e+06 3.8612e+06 3.8408e+06 3.8408e+06 3.82049e+06 3.82049e+06 3.80028e+06 3.80028e+06 3.78015e+06 3.78015e+06 3.76013e+06 3.76013e+06 3.74019e+06 3.74019e+06 3.72035e+06 3.72035e+06 3.7006e+06 3.7006e+06 3.68094e+06 3.68094e+06 3.66137e+06 3.66137e+06 3.64189e+06 3.64189e+06 3.6225e+06 3.6225e+06 3.6032e+06 3.6032e+06 3.58398e+06 3.58398e+06 3.56486e+06 3.56486e+06 3.54582e+06 3.54582e+06 3.52687e+06 3.52687e+06 3.50801e+06 3.50801e+06 3.48923e+06 3.48923e+06 3.47054e+06 3.47054e+06 3.45193e+06 3.45193e+06 3.4334e+06 3.4334e+06 3.41496e+06 3.41496e+06 3.39661e+06 3.39661e+06 3.37834e+06 3.37834e+06 3.36015e+06 3.36015e+06 3.34204e+06 3.34204e+06 3.32401e+06 3.32401e+06 3.30607e+06 3.30607e+06 3.2882e+06 3.2882e+06 3.27042e+06 3.27042e+06 3.25272e+06 3.25272e+06 3.23509e+06 3.23509e+06 3.21755e+06 3.21755e+06 3.20008e+06 3.20008e+06 3.18269e+06 3.18269e+06 3.16538e+06 3.16538e+06 3.14814e+06 3.14814e+06 3.13099e+06 3.13099e+06 3.11391e+06 3.11391e+06 3.0969e+06 3.0969e+06 3.07997e+06 3.07997e+06 3.06312e+06 3.06312e+06 3.04634e+06 3.04634e+06 3.02963e+06 3.02963e+06 3.013e+06 3.013e+06 2.99645e+06 2.99645e+06 2.97996e+06 2.97996e+06 2.96355e+06 2.96355e+06 2.94721e+06 2.94721e+06 2.93094e+06 2.93094e+06 2.91475e+06 2.91475e+06 2.89862e+06 2.89862e+06 2.88257e+06 2.88257e+06 2.86658e+06 2.86658e+06 2.85067e+06 2.85067e+06 2.83482e+06 2.83482e+06 2.81905e+06 2.81905e+06 2.80334e+06 2.80334e+06 2.78771e+06 2.78771e+06 2.77214e+06 2.77214e+06 2.75663e+06 2.75663e+06 2.7412e+06 2.7412e+06 2.72583e+06 2.72583e+06 2.71053e+06 2.71053e+06 2.6953e+06 2.6953e+06 2.68013e+06 2.68013e+06 2.66502e+06 2.66502e+06 2.64999e+06 2.64999e+06 2.63501e+06 2.63501e+06 2.6201e+06 2.6201e+06 2.60526e+06 2.60526e+06 2.59048e+06 2.59048e+06 2.57576e+06 2.57576e+06 2.56111e+06 2.56111e+06 2.54652e+06 2.54652e+06 2.53199e+06 2.53199e+06 2.51752e+06 2.51752e+06 2.50311e+06 2.50311e+06 2.48877e+06 2.48877e+06 2.47449e+06 2.47449e+06 2.46027e+06 2.46027e+06 2.44611e+06 2.44611e+06 2.43201e+06 2.43201e+06 2.41796e+06 2.41796e+06 2.40398e+06 2.40398e+06 2.39006e+06 2.39006e+06 2.3762e+06 2.3762e+06 2.36239e+06 2.36239e+06 2.34865e+06 2.34865e+06 2.33496e+06 2.33496e+06 2.32133e+06 2.32133e+06 2.30776e+06 2.30776e+06 2.29424e+06 2.29424e+06 2.28078e+06 2.28078e+06 2.26738e+06 2.26738e+06 2.25403e+06 2.25403e+06 2.24074e+06 2.24074e+06 2.22751e+06 2.22751e+06 2.21433e+06 2.21433e+06 2.2012e+06 2.2012e+06 2.18813e+06 2.18813e+06 2.17512e+06 2.17512e+06 2.16216e+06 2.16216e+06 2.14925e+06 2.14925e+06 2.1364e+06 2.1364e+06 2.1236e+06 2.1236e+06 2.11085e+06 2.11085e+06 2.09816e+06 2.09816e+06 2.08551e+06 2.08551e+06 2.07292e+06 2.07292e+06 2.06039e+06 2.06039e+06 2.0479e+06 2.0479e+06 2.03547e+06 2.03547e+06 2.02309e+06 2.02309e+06 2.01075e+06 2.01075e+06 1.99847e+06 1.99847e+06 1.98624e+06 1.98624e+06 1.97406e+06 1.97406e+06 1.96193e+06 1.96193e+06 1.94985e+06 1.94985e+06 1.93782e+06 1.93782e+06 1.92584e+06 1.92584e+06 1.9139e+06 1.9139e+06 1.90202e+06 1.90202e+06 1.89018e+06 1.89018e+06 1.8784e+06 1.8784e+06 1.86666e+06 1.86666e+06 1.85496e+06 1.85496e+06 1.84332e+06 1.84332e+06 1.83172e+06 1.83172e+06 1.82017e+06 1.82017e+06 1.80867e+06 1.80867e+06 1.79721e+06 1.79721e+06 1.7858e+06 1.7858e+06 1.77443e+06 1.77443e+06 1.76311e+06 1.76311e+06 1.75184e+06 1.75184e+06 1.74061e+06 1.74061e+06 1.72943e+06 1.72943e+06 1.71829e+06 1.71829e+06 1.7072e+06 1.7072e+06 1.69615e+06 1.69615e+06 1.68515e+06 1.68515e+06 1.67419e+06 1.67419e+06 1.66327e+06 1.66327e+06 1.6524e+06 1.6524e+06 1.64157e+06 1.64157e+06 1.63078e+06 1.63078e+06 1.62004e+06 1.62004e+06 1.60934e+06 1.60934e+06 1.59868e+06 1.59868e+06 1.58806e+06 1.58806e+06 1.57749e+06 1.57749e+06 1.56696e+06 1.56696e+06 1.55647e+06 1.55647e+06 1.54602e+06 1.54602e+06 1.53561e+06 1.53561e+06 1.52525e+06 1.52525e+06 1.51492e+06 1.51492e+06 1.50464e+06 1.50464e+06 1.49439e+06 1.49439e+06 1.48419e+06 1.48419e+06 1.47403e+06 1.47403e+06 1.4639e+06 1.4639e+06 1.45382e+06 1.45382e+06 1.44378e+06 1.44378e+06 1.43377e+06 1.43377e+06 1.42381e+06 1.42381e+06 1.41388e+06 1.41388e+06 1.40399e+06 1.40399e+06 1.39414e+06 1.39414e+06 1.38433e+06 1.38433e+06 1.37456e+06 1.37456e+06 1.36482e+06 1.36482e+06 1.35513e+06 1.35513e+06 1.34547e+06 1.34547e+06 1.33585e+06 1.33585e+06 1.32626e+06 1.32626e+06 1.31672e+06 1.31672e+06 1.30721e+06 1.30721e+06 1.29773e+06 1.29773e+06 1.2883e+06 1.2883e+06 1.2789e+06 1.2789e+06 1.26954e+06 1.26954e+06 1.26021e+06 1.26021e+06 1.25092e+06 1.25092e+06 1.24166e+06 1.24166e+06 1.23244e+06 1.23244e+06 1.22326e+06 1.22326e+06 1.21411e+06 1.21411e+06 1.20499e+06 1.20499e+06 1.19591e+06 1.19591e+06 1.18687e+06 1.18687e+06 1.17786e+06 1.17786e+06 1.16888e+06 1.16888e+06 1.15994e+06 1.15994e+06 1.15103e+06 1.15103e+06 1.14216e+06 1.14216e+06 1.13332e+06 1.13332e+06 1.12452e+06 1.12452e+06 1.11574e+06 1.11574e+06 1.10701e+06 1.10701e+06 1.0983e+06 1.0983e+06 1.08963e+06 1.08963e+06 1.08099e+06 1.08099e+06 1.07238e+06 1.07238e+06 1.06381e+06 1.06381e+06 1.05527e+06 1.05527e+06 1.04676e+06 1.04676e+06 1.03828e+06 1.03828e+06 1.02983e+06 1.02983e+06 1.02142e+06 1.02142e+06 1.01304e+06 1.01304e+06 1.00469e+06 1.00469e+06 996368 996368 988080 988080 979824 979824 971598 971598 963403 963403 955239 955239 947105 947105 939002 939002 930929 930929 922887 922887 914874 914874 906891 906891 898938 898938 891014 891014 883120 883120 875256 875256 867420 867420 859614 859614 851836 851836 844087 844087 836367 836367 828676 828676 821013 821013 813378 813378 805771 805771 798193 798193 790642 790642 783119 783119 775624 775624 768156 768156 760716 760716 753303 753303 745917 745917 738558 738558 731226 731226 723921 723921 716643 716643 709391 709391 702166 702166 694967 694967 687795 687795 680648 680648 673528 673528 666433 666433 659364 659364 652321 652321 645303 645303 638311 638311 631344 631344 624402 624402 617486 617486 610594 610594 603727 603727 596886 596886 590068 590068 583276 583276 576507 576507 569764 569764 563044 563044 556348 556348 549677 549677 543030 543030 536406 536406 529806 529806 523230 523230 516677 516677 510147 510147 503641 503641 497159 497159 490699 490699 484262 484262 477849 477849 471458 471458 465090 465090 458744 458744 452421 452421 446121 446121 439842 439842 433586 433586 427353 427353 421141 421141 414951 414951 408784 408784 402637 402637 396513 396513 390410 390410 384329 384329 378269 378269 372231 372231 366214 366214 360218 360218 354243 354243 348289 348289 342355 342355 336443 336443 330552 330552 324681 324681 318830 318830 313000 313000 307191 307191 301401 301401 295632 295632 289883 289883 284154 284154 278445 278445 272756 272756 267087 267087 261437 261437 255807 255807 250197 250197 244606 244606 239034 239034 233482 233482 227949 227949 222435 222435 216940 216940 211465 211465 206008 206008 200570 200570 195150 195150 189750 189750 184368 184368 179004 179004 173659 173659 168333 168333 163024 163024 157734 157734 152463 152463 147209 147209 141973 141973 136755 136755 131555 131555 126373 126373 121208 121208 116062 116062 110932 110932 105821 105821 100