# vtk DataFile Version 3.0
#This file was generated by the deal.II library on 2020/9/6 at 3:01:56
ASCII
DATASET UNSTRUCTURED_GRID

POINTS 4096 double
1.5 0 0
1.59692 0 0
1.59692 0 0
1.69385 0 0
1.69385 0 0
1.79077 0 0
1.79077 0 0
1.8877 0 0
1.8877 0 0
1.98462 0 0
1.98462 0 0
2.08154 0 0
2.08154 0 0
2.17847 0 0
2.17847 0 0
2.27539 0 0
2.27539 0 0
2.37231 0 0
2.37231 0 0
2.46924 0 0
2.46924 0 0
2.56616 0 0
2.56616 0 0
2.66309 0 0
2.66309 0 0
2.76001 0 0
2.76001 0 0
2.85693 0 0
2.85693 0 0
2.95386 0 0
2.95386 0 0
3.05078 0 0
3.05078 0 0
3.14771 0 0
3.14771 0 0
3.24463 0 0
3.24463 0 0
3.34155 0 0
3.34155 0 0
3.43848 0 0
3.43848 0 0
3.5354 0 0
3.5354 0 0
3.63232 0 0
3.63232 0 0
3.72925 0 0
3.72925 0 0
3.82617 0 0
3.82617 0 0
3.9231 0 0
3.9231 0 0
4.02002 0 0
4.02002 0 0
4.11694 0 0
4.11694 0 0
4.21387 0 0
4.21387 0 0
4.31079 0 0
4.31079 0 0
4.40771 0 0
4.40771 0 0
4.50464 0 0
4.50464 0 0
4.60156 0 0
4.60156 0 0
4.69849 0 0
4.69849 0 0
4.79541 0 0
4.79541 0 0
4.89233 0 0
4.89233 0 0
4.98926 0 0
4.98926 0 0
5.08618 0 0
5.08618 0 0
5.18311 0 0
5.18311 0 0
5.28003 0 0
5.28003 0 0
5.37695 0 0
5.37695 0 0
5.47388 0 0
5.47388 0 0
5.5708 0 0
5.5708 0 0
5.66772 0 0
5.66772 0 0
5.76465 0 0
5.76465 0 0
5.86157 0 0
5.86157 0 0
5.9585 0 0
5.9585 0 0
6.05542 0 0
6.05542 0 0
6.15234 0 0
6.15234 0 0
6.24927 0 0
6.24927 0 0
6.34619 0 0
6.34619 0 0
6.44312 0 0
6.44312 0 0
6.54004 0 0
6.54004 0 0
6.63696 0 0
6.63696 0 0
6.73389 0 0
6.73389 0 0
6.83081 0 0
6.83081 0 0
6.92773 0 0
6.92773 0 0
7.02466 0 0
7.02466 0 0
7.12158 0 0
7.12158 0 0
7.21851 0 0
7.21851 0 0
7.31543 0 0
7.31543 0 0
7.41235 0 0
7.41235 0 0
7.50928 0 0
7.50928 0 0
7.6062 0 0
7.6062 0 0
7.70312 0 0
7.70312 0 0
7.80005 0 0
7.80005 0 0
7.89697 0 0
7.89697 0 0
7.9939 0 0
7.9939 0 0
8.09082 0 0
8.09082 0 0
8.18774 0 0
8.18774 0 0
8.28467 0 0
8.28467 0 0
8.38159 0 0
8.38159 0 0
8.47852 0 0
8.47852 0 0
8.57544 0 0
8.57544 0 0
8.67236 0 0
8.67236 0 0
8.76929 0 0
8.76929 0 0
8.86621 0 0
8.86621 0 0
8.96313 0 0
8.96313 0 0
9.06006 0 0
9.06006 0 0
9.15698 0 0
9.15698 0 0
9.25391 0 0
9.25391 0 0
9.35083 0 0
9.35083 0 0
9.44775 0 0
9.44775 0 0
9.54468 0 0
9.54468 0 0
9.6416 0 0
9.6416 0 0
9.73853 0 0
9.73853 0 0
9.83545 0 0
9.83545 0 0
9.93237 0 0
9.93237 0 0
10.0293 0 0
10.0293 0 0
10.1262 0 0
10.1262 0 0
10.2231 0 0
10.2231 0 0
10.3201 0 0
10.3201 0 0
10.417 0 0
10.417 0 0
10.5139 0 0
10.5139 0 0
10.6108 0 0
10.6108 0 0
10.7078 0 0
10.7078 0 0
10.8047 0 0
10.8047 0 0
10.9016 0 0
10.9016 0 0
10.9985 0 0
10.9985 0 0
11.0955 0 0
11.0955 0 0
11.1924 0 0
11.1924 0 0
11.2893 0 0
11.2893 0 0
11.3862 0 0
11.3862 0 0
11.4832 0 0
11.4832 0 0
11.5801 0 0
11.5801 0 0
11.677 0 0
11.677 0 0
11.7739 0 0
11.7739 0 0
11.8708 0 0
11.8708 0 0
11.9678 0 0
11.9678 0 0
12.0647 0 0
12.0647 0 0
12.1616 0 0
12.1616 0 0
12.2585 0 0
12.2585 0 0
12.3555 0 0
12.3555 0 0
12.4524 0 0
12.4524 0 0
12.5493 0 0
12.5493 0 0
12.6462 0 0
12.6462 0 0
12.7432 0 0
12.7432 0 0
12.8401 0 0
12.8401 0 0
12.937 0 0
12.937 0 0
13.0339 0 0
13.0339 0 0
13.1309 0 0
13.1309 0 0
13.2278 0 0
13.2278 0 0
13.3247 0 0
13.3247 0 0
13.4216 0 0
13.4216 0 0
13.5186 0 0
13.5186 0 0
13.6155 0 0
13.6155 0 0
13.7124 0 0
13.7124 0 0
13.8093 0 0
13.8093 0 0
13.9062 0 0
13.9062 0 0
14.0032 0 0
14.0032 0 0
14.1001 0 0
14.1001 0 0
14.197 0 0
14.197 0 0
14.2939 0 0
14.2939 0 0
14.3909 0 0
14.3909 0 0
14.4878 0 0
14.4878 0 0
14.5847 0 0
14.5847 0 0
14.6816 0 0
14.6816 0 0
14.7786 0 0
14.7786 0 0
14.8755 0 0
14.8755 0 0
14.9724 0 0
14.9724 0 0
15.0693 0 0
15.0693 0 0
15.1663 0 0
15.1663 0 0
15.2632 0 0
15.2632 0 0
15.3601 0 0
15.3601 0 0
15.457 0 0
15.457 0 0
15.554 0 0
15.554 0 0
15.6509 0 0
15.6509 0 0
15.7478 0 0
15.7478 0 0
15.8447 0 0
15.8447 0 0
15.9417 0 0
15.9417 0 0
16.0386 0 0
16.0386 0 0
16.1355 0 0
16.1355 0 0
16.2324 0 0
16.2324 0 0
16.3293 0 0
16.3293 0 0
16.4263 0 0
16.4263 0 0
16.5232 0 0
16.5232 0 0
16.6201 0 0
16.6201 0 0
16.717 0 0
16.717 0 0
16.814 0 0
16.814 0 0
16.9109 0 0
16.9109 0 0
17.0078 0 0
17.0078 0 0
17.1047 0 0
17.1047 0 0
17.2017 0 0
17.2017 0 0
17.2986 0 0
17.2986 0 0
17.3955 0 0
17.3955 0 0
17.4924 0 0
17.4924 0 0
17.5894 0 0
17.5894 0 0
17.6863 0 0
17.6863 0 0
17.7832 0 0
17.7832 0 0
17.8801 0 0
17.8801 0 0
17.9771 0 0
17.9771 0 0
18.074 0 0
18.074 0 0
18.1709 0 0
18.1709 0 0
18.2678 0 0
18.2678 0 0
18.3647 0 0
18.3647 0 0
18.4617 0 0
18.4617 0 0
18.5586 0 0
18.5586 0 0
18.6555 0 0
18.6555 0 0
18.7524 0 0
18.7524 0 0
18.8494 0 0
18.8494 0 0
18.9463 0 0
18.9463 0 0
19.0432 0 0
19.0432 0 0
19.1401 0 0
19.1401 0 0
19.2371 0 0
19.2371 0 0
19.334 0 0
19.334 0 0
19.4309 0 0
19.4309 0 0
19.5278 0 0
19.5278 0 0
19.6248 0 0
19.6248 0 0
19.7217 0 0
19.7217 0 0
19.8186 0 0
19.8186 0 0
19.9155 0 0
19.9155 0 0
20.0125 0 0
20.0125 0 0
20.1094 0 0
20.1094 0 0
20.2063 0 0
20.2063 0 0
20.3032 0 0
20.3032 0 0
20.4001 0 0
20.4001 0 0
20.4971 0 0
20.4971 0 0
20.594 0 0
20.594 0 0
20.6909 0 0
20.6909 0 0
20.7878 0 0
20.7878 0 0
20.8848 0 0
20.8848 0 0
20.9817 0 0
20.9817 0 0
21.0786 0 0
21.0786 0 0
21.1755 0 0
21.1755 0 0
21.2725 0 0
21.2725 0 0
21.3694 0 0
21.3694 0 0
21.4663 0 0
21.4663 0 0
21.5632 0 0
21.5632 0 0
21.6602 0 0
21.6602 0 0
21.7571 0 0
21.7571 0 0
21.854 0 0
21.854 0 0
21.9509 0 0
21.9509 0 0
22.0479 0 0
22.0479 0 0
22.1448 0 0
22.1448 0 0
22.2417 0 0
22.2417 0 0
22.3386 0 0
22.3386 0 0
22.4355 0 0
22.4355 0 0
22.5325 0 0
22.5325 0 0
22.6294 0 0
22.6294 0 0
22.7263 0 0
22.7263 0 0
22.8232 0 0
22.8232 0 0
22.9202 0 0
22.9202 0 0
23.0171 0 0
23.0171 0 0
23.114 0 0
23.114 0 0
23.2109 0 0
23.2109 0 0
23.3079 0 0
23.3079 0 0
23.4048 0 0
23.4048 0 0
23.5017 0 0
23.5017 0 0
23.5986 0 0
23.5986 0 0
23.6956 0 0
23.6956 0 0
23.7925 0 0
23.7925 0 0
23.8894 0 0
23.8894 0 0
23.9863 0 0
23.9863 0 0
24.0833 0 0
24.0833 0 0
24.1802 0 0
24.1802 0 0
24.2771 0 0
24.2771 0 0
24.374 0 0
24.374 0 0
24.4709 0 0
24.4709 0 0
24.5679 0 0
24.5679 0 0
24.6648 0 0
24.6648 0 0
24.7617 0 0
24.7617 0 0
24.8586 0 0
24.8586 0 0
24.9556 0 0
24.9556 0 0
25.0525 0 0
25.0525 0 0
25.1494 0 0
25.1494 0 0
25.2463 0 0
25.2463 0 0
25.3433 0 0
25.3433 0 0
25.4402 0 0
25.4402 0 0
25.5371 0 0
25.5371 0 0
25.634 0 0
25.634 0 0
25.731 0 0
25.731 0 0
25.8279 0 0
25.8279 0 0
25.9248 0 0
25.9248 0 0
26.0217 0 0
26.0217 0 0
26.1187 0 0
26.1187 0 0
26.2156 0 0
26.2156 0 0
26.3125 0 0
26.3125 0 0
26.4094 0 0
26.4094 0 0
26.5063 0 0
26.5063 0 0
26.6033 0 0
26.6033 0 0
26.7002 0 0
26.7002 0 0
26.7971 0 0
26.7971 0 0
26.894 0 0
26.894 0 0
26.991 0 0
26.991 0 0
27.0879 0 0
27.0879 0 0
27.1848 0 0
27.1848 0 0
27.2817 0 0
27.2817 0 0
27.3787 0 0
27.3787 0 0
27.4756 0 0
27.4756 0 0
27.5725 0 0
27.5725 0 0
27.6694 0 0
27.6694 0 0
27.7664 0 0
27.7664 0 0
27.8633 0 0
27.8633 0 0
27.9602 0 0
27.9602 0 0
28.0571 0 0
28.0571 0 0
28.1541 0 0
28.1541 0 0
28.251 0 0
28.251 0 0
28.3479 0 0
28.3479 0 0
28.4448 0 0
28.4448 0 0
28.5417 0 0
28.5417 0 0
28.6387 0 0
28.6387 0 0
28.7356 0 0
28.7356 0 0
28.8325 0 0
28.8325 0 0
28.9294 0 0
28.9294 0 0
29.0264 0 0
29.0264 0 0
29.1233 0 0
29.1233 0 0
29.2202 0 0
29.2202 0 0
29.3171 0 0
29.3171 0 0
29.4141 0 0
29.4141 0 0
29.511 0 0
29.511 0 0
29.6079 0 0
29.6079 0 0
29.7048 0 0
29.7048 0 0
29.8018 0 0
29.8018 0 0
29.8987 0 0
29.8987 0 0
29.9956 0 0
29.9956 0 0
30.0925 0 0
30.0925 0 0
30.1895 0 0
30.1895 0 0
30.2864 0 0
30.2864 0 0
30.3833 0 0
30.3833 0 0
30.4802 0 0
30.4802 0 0
30.5771 0 0
30.5771 0 0
30.6741 0 0
30.6741 0 0
30.771 0 0
30.771 0 0
30.8679 0 0
30.8679 0 0
30.9648 0 0
30.9648 0 0
31.0618 0 0
31.0618 0 0
31.1587 0 0
31.1587 0 0
31.2556 0 0
31.2556 0 0
31.3525 0 0
31.3525 0 0
31.4495 0 0
31.4495 0 0
31.5464 0 0
31.5464 0 0
31.6433 0 0
31.6433 0 0
31.7402 0 0
31.7402 0 0
31.8372 0 0
31.8372 0 0
31.9341 0 0
31.9341 0 0
32.031 0 0
32.031 0 0
32.1279 0 0
32.1279 0 0
32.2249 0 0
32.2249 0 0
32.3218 0 0
32.3218 0 0
32.4187 0 0
32.4187 0 0
32.5156 0 0
32.5156 0 0
32.6125 0 0
32.6125 0 0
32.7095 0 0
32.7095 0 0
32.8064 0 0
32.8064 0 0
32.9033 0 0
32.9033 0 0
33.0002 0 0
33.0002 0 0
33.0972 0 0
33.0972 0 0
33.1941 0 0
33.1941 0 0
33.291 0 0
33.291 0 0
33.3879 0 0
33.3879 0 0
33.4849 0 0
33.4849 0 0
33.5818 0 0
33.5818 0 0
33.6787 0 0
33.6787 0 0
33.7756 0 0
33.7756 0 0
33.8726 0 0
33.8726 0 0
33.9695 0 0
33.9695 0 0
34.0664 0 0
34.0664 0 0
34.1633 0 0
34.1633 0 0
34.2603 0 0
34.2603 0 0
34.3572 0 0
34.3572 0 0
34.4541 0 0
34.4541 0 0
34.551 0 0
34.551 0 0
34.6479 0 0
34.6479 0 0
34.7449 0 0
34.7449 0 0
34.8418 0 0
34.8418 0 0
34.9387 0 0
34.9387 0 0
35.0356 0 0
35.0356 0 0
35.1326 0 0
35.1326 0 0
35.2295 0 0
35.2295 0 0
35.3264 0 0
35.3264 0 0
35.4233 0 0
35.4233 0 0
35.5203 0 0
35.5203 0 0
35.6172 0 0
35.6172 0 0
35.7141 0 0
35.7141 0 0
35.811 0 0
35.811 0 0
35.908 0 0
35.908 0 0
36.0049 0 0
36.0049 0 0
36.1018 0 0
36.1018 0 0
36.1987 0 0
36.1987 0 0
36.2957 0 0
36.2957 0 0
36.3926 0 0
36.3926 0 0
36.4895 0 0
36.4895 0 0
36.5864 0 0
36.5864 0 0
36.6833 0 0
36.6833 0 0
36.7803 0 0
36.7803 0 0
36.8772 0 0
36.8772 0 0
36.9741 0 0
36.9741 0 0
37.071 0 0
37.071 0 0
37.168 0 0
37.168 0 0
37.2649 0 0
37.2649 0 0
37.3618 0 0
37.3618 0 0
37.4587 0 0
37.4587 0 0
37.5557 0 0
37.5557 0 0
37.6526 0 0
37.6526 0 0
37.7495 0 0
37.7495 0 0
37.8464 0 0
37.8464 0 0
37.9434 0 0
37.9434 0 0
38.0403 0 0
38.0403 0 0
38.1372 0 0
38.1372 0 0
38.2341 0 0
38.2341 0 0
38.3311 0 0
38.3311 0 0
38.428 0 0
38.428 0 0
38.5249 0 0
38.5249 0 0
38.6218 0 0
38.6218 0 0
38.7188 0 0
38.7188 0 0
38.8157 0 0
38.8157 0 0
38.9126 0 0
38.9126 0 0
39.0095 0 0
39.0095 0 0
39.1064 0 0
39.1064 0 0
39.2034 0 0
39.2034 0 0
39.3003 0 0
39.3003 0 0
39.3972 0 0
39.3972 0 0
39.4941 0 0
39.4941 0 0
39.5911 0 0
39.5911 0 0
39.688 0 0
39.688 0 0
39.7849 0 0
39.7849 0 0
39.8818 0 0
39.8818 0 0
39.9788 0 0
39.9788 0 0
40.0757 0 0
40.0757 0 0
40.1726 0 0
40.1726 0 0
40.2695 0 0
40.2695 0 0
40.3665 0 0
40.3665 0 0
40.4634 0 0
40.4634 0 0
40.5603 0 0
40.5603 0 0
40.6572 0 0
40.6572 0 0
40.7542 0 0
40.7542 0 0
40.8511 0 0
40.8511 0 0
40.948 0 0
40.948 0 0
41.0449 0 0
41.0449 0 0
41.1418 0 0
41.1418 0 0
41.2388 0 0
41.2388 0 0
41.3357 0 0
41.3357 0 0
41.4326 0 0
41.4326 0 0
41.5295 0 0
41.5295 0 0
[...]
POINT_DATA 4096
SCALARS solution_0 double 1
LOOKUP_TABLE default
1.1619e+09 1.13783e+09 1.13783e+09 1.11753e+09 1.11753e+09 1.10024e+09 1.10024e+09 1.08538e+09 1.08538e+09 1.07248e+09 1.07248e+09 1.06119e+09 1.06119e+09 1.05123e+09 1.05123e+09 1.04236e+09 1.04236e+09 1.03441e+09 1.03441e+09 1.02722e+09 1.02722e+09 1.02067e+09 1.02067e+09 1.01466e+09 1.01466e+09 1.0091e+09 1.0091e+09 1.00392e+09 1.00392e+09 9.9906e+08 9.9906e+08 9.94477e+08 9.94477e+08 9.90123e+08 9.90123e+08 9.85964e+08 9.85964e+08 9.81969e+08 9.81969e+08 9.78111e+08 9.78111e+08 9.74368e+08 9.74368e+08 9.70721e+08 9.70721e+08 9.67153e+08 9.67153e+08 9.63651e+08 9.63651e+08 9.60201e+08 9.60201e+08 9.56794e+08 9.56794e+08 9.5342e+08 9.5342e+08 9.50072e+08 9.50072e+08 9.46743e+08 9.46743e+08 9.43426e+08 9.43426e+08 9.40119e+08 9.40119e+08 9.36815e+08 9.36815e+08 9.33511e+08 9.33511e+08 9.30204e+08 9.30204e+08 9.26892e+08 9.26892e+08 9.23573e+08 9.23573e+08 9.20244e+08 9.20244e+08 9.16905e+08 9.16905e+08 9.13553e+08 9.13553e+08 9.10188e+08 9.10188e+08 9.0681e+08 9.0681e+08 9.03417e+08 9.03417e+08 9.00009e+08 9.00009e+08 8.96586e+08 8.96586e+08 8.93147e+08 8.93147e+08 8.89694e+08 8.89694e+08 8.86225e+08 8.86225e+08 8.82741e+08 8.82741e+08 8.79242e+08 8.79242e+08 8.75729e+08 8.75729e+08 8.72201e+08 8.72201e+08 8.6866e+08 8.6866e+08 8.65105e+08 8.65105e+08 8.61537e+08 8.61537e+08 8.57957e+08 8.57957e+08 8.54364e+08 8.54364e+08 8.5076e+08 8.5076e+08 8.47146e+08 8.47146e+08 8.43521e+08 8.43521e+08 8.39886e+08 8.39886e+08 8.36242e+08 8.36242e+08 8.3259e+08 8.3259e+08 8.28929e+08 8.28929e+08 8.25261e+08 8.25261e+08 8.21587e+08 8.21587e+08 8.17906e+08 8.17906e+08 8.14219e+08 8.14219e+08 8.10528e+08 8.10528e+08 8.06832e+08 8.06832e+08 8.03132e+08 8.03132e+08 7.99428e+08 7.99428e+08 7.95722e+08 7.95722e+08 7.92014e+08 7.92014e+08 7.88303e+08 7.88303e+08 7.84592e+08 7.84592e+08 7.8088e+08 7.8088e+08 7.77168e+08 7.77168e+08 7.73456e+08 7.73456e+08 7.69745e+08 7.69745e+08 7.66036e+08 7.66036e+08 7.62328e+08 7.62328e+08 7.58622e+08 7.58622e+08 7.54919e+08 7.54919e+08 7.51219e+08 7.51219e+08 7.47523e+08 7.47523e+08 7.4383e+08 7.4383e+08 7.40142e+08 7.40142e+08 7.36459e+08 7.36459e+08 7.32781e+08 7.32781e+08 7.29108e+08 7.29108e+08 7.25442e+08 7.25442e+08 7.21781e+08 7.21781e+08 7.18127e+08 7.18127e+08 7.1448e+08 7.1448e+08 7.1084e+08 7.1084e+08 7.07208e+08 7.07208e+08 7.03584e+08 7.03584e+08 6.99968e+08 6.99968e+08 6.9636e+08 6.9636e+08 6.92761e+08 6.92761e+08 6.89171e+08 6.89171e+08 6.85591e+08 6.85591e+08 6.82019e+08 6.82019e+08 6.78458e+08 6.78458e+08 6.74907e+08 6.74907e+08 6.71366e+08 6.71366e+08 6.67835e+08 6.67835e+08 6.64315e+08 6.64315e+08 6.60806e+08 6.60806e+08 6.57307e+08 6.57307e+08 6.53821e+08 6.53821e+08 6.50345e+08 6.50345e+08 6.46881e+08 6.46881e+08 6.4343e+08 6.4343e+08 6.3999e+08 6.3999e+08 6.36562e+08 6.36562e+08 6.33146e+08 6.33146e+08 6.29743e+08 6.29743e+08 6.26352e+08 6.26352e+08 6.22974e+08 6.22974e+08 6.19609e+08 6.19609e+08 6.16257e+08 6.16257e+08 6.12918e+08 6.12918e+08 6.09592e+08 6.09592e+08 6.06279e+08 6.06279e+08 6.0298e+08 6.0298e+08 5.99695e+08 5.99695e+08 5.96422e+08 5.96422e+08 5.93164e+08 5.93164e+08 5.89919e+08 5.89919e+08 5.86688e+08 5.86688e+08 5.83471e+08 5.83471e+08 5.80268e+08 5.80268e+08 5.77079e+08 5.77079e+08 5.73904e+08 5.73904e+08 5.70743e+08 5.70743e+08 5.67596e+08 5.67596e+08 5.64464e+08 5.64464e+08 5.61346e+08 5.61346e+08 5.58242e+08 5.58242e+08 5.55153e+08 5.55153e+08 5.52078e+08 5.52078e+08 5.49017e+08 5.49017e+08 5.45972e+08 5.45972e+08 5.4294e+08 5.4294e+08 5.39923e+08 5.39923e+08 5.36921e+08 5.36921e+08 5.33933e+08 5.33933e+08 5.3096e+08 5.3096e+08 5.28001e+08 5.28001e+08 5.25057e+08 5.25057e+08 5.22127e+08 5.22127e+08 5.19213e+08 5.19213e+08 5.16312e+08 5.16312e+08 5.13427e+08 5.13427e+08 5.10556e+08 5.10556e+08 5.077e+08 5.077e+08 5.04858e+08 5.04858e+08 5.02031e+08 5.02031e+08 4.99218e+08 4.99218e+08 4.9642e+08 4.9642e+08 4.93637e+08 4.93637e+08 4.90868e+08 4.90868e+08 4.88114e+08 4.88114e+08 4.85374e+08 4.85374e+08 4.82648e+08 4.82648e+08 4.79938e+08 4.79938e+08 4.77241e+08 4.77241e+08 4.74559e+08 4.74559e+08 4.71891e+08 4.71891e+08 4.69238e+08 4.69238e+08 4.66599e+08 4.66599e+08 4.63974e+08 4.63974e+08 4.61364e+08 4.61364e+08 4.58768e+08 4.58768e+08 4.56186e+08 4.56186e+08 4.53618e+08 4.53618e+08 4.51064e+08 4.51064e+08 4.48524e+08 4.48524e+08 4.45999e+08 4.45999e+08 4.43487e+08 4.43487e+08 4.40989e+08 4.40989e+08 4.38505e+08 4.38505e+08 4.36035e+08 4.36035e+08 4.33579e+08 4.33579e+08 4.31137e+08 4.31137e+08 4.28708e+08 4.28708e+08 4.26293e+08 4.26293e+08 4.23892e+08 4.23892e+08 4.21504e+08 4.21504e+08 4.1913e+08 4.1913e+08 4.16769e+08 4.16769e+08 4.14422e+08 4.14422e+08 4.12088e+08 4.12088e+08 4.09767e+08 4.09767e+08 4.0746e+08 4.0746e+08 4.05166e+08 4.05166e+08 4.02885e+08 4.02885e+08 4.00617e+08 4.00617e+08 3.98362e+08 3.98362e+08 3.9612e+08 3.9612e+08 3.93891e+08 3.93891e+08 3.91675e+08 3.91675e+08 3.89472e+08 3.89472e+08 3.87282e+08 3.87282e+08 3.85104e+08 3.85104e+08 3.82939e+08 3.82939e+08 3.80787e+08 3.80787e+08 3.78647e+08 3.78647e+08 3.76519e+08 3.76519e+08 3.74404e+08 3.74404e+08 3.72302e+08 3.72302e+08 3.70212e+08 3.70212e+08 3.68134e+08 3.68134e+08 3.66068e+08 3.66068e+08 3.64014e+08 3.64014e+08 3.61972e+08 3.61972e+08 3.59943e+08 3.59943e+08 3.57925e+08 3.57925e+08 3.55919e+08 3.55919e+08 3.53926e+08 3.53926e+08 3.51943e+08 3.51943e+08 3.49973e+08 3.49973e+08 3.48014e+08 3.48014e+08 3.46067e+08 3.46067e+08 3.44131e+08 3.44131e+08 3.42207e+08 3.42207e+08 3.40294e+08 3.40294e+08 3.38393e+08 3.38393e+08 3.36503e+08 3.36503e+08 3.34624e+08 3.34624e+08 3.32756e+08 3.32756e+08 3.30899e+08 3.30899e+08 3.29054e+08 3.29054e+08 3.27219e+08 3.27219e+08 3.25396e+08 3.25396e+08 3.23583e+08 3.23583e+08 3.21781e+08 3.21781e+08 3.19989e+08 3.19989e+08 3.18209e+08 3.18209e+08 3.16439e+08 3.16439e+08 3.14679e+08 3.14679e+08 3.1293e+08 3.1293e+08 3.11192e+08 3.11192e+08 3.09464e+08 3.09464e+08 3.07746e+08 3.07746e+08 3.06039e+08 3.06039e+08 3.04341e+08 3.04341e+08 3.02654e+08 3.02654e+08 3.00977e+08 3.00977e+08 2.9931e+08 2.9931e+08 2.97653e+08 2.97653e+08 2.96006e+08 2.96006e+08 2.94369e+08 2.94369e+08 2.92741e+08 2.92741e+08 2.91123e+08 2.91123e+08 2.89515e+08 2.89515e+08 2.87917e+08 2.87917e+08 2.86328e+08 2.86328e+08 2.84749e+08 2.84749e+08 2.83179e+08 2.83179e+08 2.81618e+08 2.81618e+08 2.80067e+08 2.80067e+08 2.78525e+08 2.78525e+08 2.76992e+08 2.76992e+08 2.75469e+08 2.75469e+08 2.73954e+08 2.73954e+08 2.72449e+08 2.72449e+08 2.70953e+08 2.70953e+08 2.69465e+08 2.69465e+08 2.67987e+08 2.67987e+08 2.66517e+08 2.66517e+08 2.65056e+08 2.65056e+08 2.63604e+08 2.63604e+08 2.6216e+08 2.6216e+08 2.60726e+08 2.60726e+08 2.59299e+08 2.59299e+08 2.57881e+08 2.57881e+08 2.56472e+08 2.56472e+08 2.55071e+08 2.55071e+08 2.53678e+08 2.53678e+08 2.52294e+08 2.52294e+08 2.50918e+08 2.50918e+08 2.4955e+08 2.4955e+08 2.48191e+08 2.48191e+08 2.46839e+08 2.46839e+08 2.45495e+08 2.45495e+08 2.4416e+08 2.4416e+08 2.42832e+08 2.42832e+08 2.41512e+08 2.41512e+08 2.40201e+08 2.40201e+08 2.38896e+08 2.38896e+08 2.376e+08 2.376e+08 2.36311e+08 2.36311e+08 2.3503e+08 2.3503e+08 2.33757e+08 2.33757e+08 2.32491e+08 2.32491e+08 2.31233e+08 2.31233e+08 2.29982e+08 2.29982e+08 2.28738e+08 2.28738e+08 2.27502e+08 2.27502e+08 2.26273e+08 2.26273e+08 2.25052e+08 2.25052e+08 2.23837e+08 2.23837e+08 2.2263e+08 2.2263e+08 2.2143e+08 2.2143e+08 2.20237e+08 2.20237e+08 2.19051e+08 2.19051e+08 2.17872e+08 2.17872e+08 2.167e+08 2.167e+08 2.15535e+08 2.15535e+08 2.14376e+08 2.14376e+08 2.13225e+08 2.13225e+08 2.1208e+08 2.1208e+08 2.10942e+08 2.10942e+08 2.09811e+08 2.09811e+08 2.08686e+08 2.08686e+08 2.07568e+08 2.07568e+08 2.06456e+08 2.06456e+08 2.05351e+08 2.05351e+08 2.04252e+08 2.04252e+08 2.0316e+08 2.0316e+08 2.02074e+08 2.02074e+08 2.00995e+08 2.00995e+08 1.99921e+08 1.99921e+08 1.98855e+08 1.98855e+08 1.97794e+08 1.97794e+08 1.96739e+08 1.96739e+08 1.95691e+08 1.95691e+08 1.94648e+08 1.94648e+08 1.93612e+08 1.93612e+08 1.92582e+08 1.92582e+08 1.91557e+08 1.91557e+08 1.90539e+08 1.90539e+08 1.89526e+08 1.89526e+08 1.8852e+08 1.8852e+08 1.87519e+08 1.87519e+08 1.86524e+08 1.86524e+08 1.85535e+08 1.85535e+08 1.84551e+08 1.84551e+08 1.83573e+08 1.83573e+08 1.82601e+08 1.82601e+08 1.81634e+08 1.81634e+08 1.80673e+08 1.80673e+08 1.79717e+08 1.79717e+08 1.78767e+08 1.78767e+08 1.77822e+08 1.77822e+08 1.76883e+08 1.76883e+08 1.75949e+08 1.75949e+08 1.7502e+08 1.7502e+08 1.74097e+08 1.74097e+08 1.73179e+08 1.73179e+08 1.72266e+08 1.72266e+08 1.71359e+08 1.71359e+08 1.70456e+08 1.70456e+08 1.69559e+08 1.69559e+08 1.68667e+08 1.68667e+08 1.6778e+08 1.6778e+08 1.66898e+08 1.66898e+08 1.66021e+08 1.66021e+08 1.65149e+08 1.65149e+08 1.64281e+08 1.64281e+08 1.63419e+08 1.63419e+08 1.62562e+08 1.62562e+08 1.61709e+08 1.61709e+08 1.60861e+08 1.60861e+08 1.60018e+08 1.60018e+08 1.5918e+08 1.5918e+08 1.58347e+08 1.58347e+08 1.57518e+08 1.57518e+08 1.56694e+08 1.56694e+08 1.55874e+08 1.55874e+08 1.55059e+08 1.55059e+08 1.54249e+08 1.54249e+08 1.53443e+08 1.53443e+08 1.52641e+08 1.52641e+08 1.51844e+08 1.51844e+08 1.51052e+08 1.51052e+08 1.50264e+08 1.50264e+08 1.4948e+08 1.4948e+08 1.48701e+08 1.48701e+08 1.47926e+08 1.47926e+08 1.47155e+08 1.47155e+08 1.46389e+08 1.46389e+08 1.45627e+08 1.45627e+08 1.44869e+08 1.44869e+08 1.44115e+08 1.44115e+08 1.43365e+08 1.43365e+08 1.4262e+08 1.4262e+08 1.41879e+08 1.41879e+08 1.41141e+08 1.41141e+08 1.40408e+08 1.40408e+08 1.39679e+08 1.39679e+08 1.38954e+08 1.38954e+08 1.38232e+08 1.38232e+08 1.37515e+08 1.37515e+08 1.36802e+08 1.36802e+08 1.36092e+08 1.36092e+08 1.35387e+08 1.35387e+08 1.34685e+08 1.34685e+08 1.33987e+08 1.33987e+08 1.33293e+08 1.33293e+08 1.32603e+08 1.32603e+08 1.31916e+08 1.31916e+08 1.31233e+08 1.31233e+08 1.30554e+08 1.30554e+08 1.29879e+08 1.29879e+08 1.29207e+08 1.29207e+08 1.28539e+08 1.28539e+08 1.27874e+08 1.27874e+08 1.27213e+08 1.27213e+08 1.26556e+08 1.26556e+08 1.25902e+08 1.25902e+08 1.25252e+08 1.25252e+08 1.24605e+08 1.24605e+08 1.23961e+08 1.23961e+08 1.23321e+08 1.23321e+08 1.22685e+08 1.22685e+08 1.22052e+08 1.22052e+08 1.21422e+08 1.21422e+08 1.20795e+08 1.20795e+08 1.20172e+08 1.20172e+08 1.19553e+08 1.19553e+08 1.18936e+08 1.18936e+08 1.18323e+08 1.18323e+08 1.17713e+08 1.17713e+08 1.17106e+08 1.17106e+08 1.16503e+08 1.16503e+08 1.15903e+08 1.15903e+08 1.15306e+08 1.15306e+08 1.14712e+08 1.14712e+08 1.14121e+08 1.14121e+08 1.13533e+08 1.13533e+08 1.12948e+08 1.12948e+08 1.12367e+08 1.12367e+08 1.11788e+08 1.11788e+08 1.11213e+08 1.11213e+08 1.1064e+08 1.1064e+08 1.10071e+08 1.10071e+08 1.09505e+08 1.09505e+08 1.08941e+08 1.08941e+08 1.0838e+08 1.0838e+08 1.07823e+08 1.07823e+08 1.07268e+08 1.07268e+08 1.06716e+08 1.06716e+08 1.06167e+08 1.06167e+08 1.05621e+08 1.05621e+08 1.05078e+08 1.05078e+08 1.04537e+08 1.04537e+08 1.03999e+08 1.03999e+08 1.03464e+08 1.03464e+08 1.02932e+08 1.02932e+08 1.02403e+08 1.02403e+08 1.01876e+08 1.01876e+08 1.01352e+08 1.01352e+08 1.00831e+08 1.00831e+08 1.00312e+08 1.00312e+08 9.97961e+07 9.97961e+07 9.92827e+07 9.92827e+07 9.8772e+07 9.8772e+07 9.82638e+07 9.82638e+07 9.77583e+07 9.77583e+07 9.72554e+07 9.72554e+07 9.6755e+07 9.6755e+07 9.62571e+07 9.62571e+07 9.57618e+07 9.57618e+07 9.5269e+07 9.5269e+07 9.47786e+07 9.47786e+07 9.42908e+07 9.42908e+07 9.38054e+07 9.38054e+07 9.33225e+07 9.33225e+07 9.2842e+07 9.2842e+07 9.23639e+07 9.23639e+07 9.18883e+07 9.18883e+07 9.1415e+07 9.1415e+07 9.09441e+07 9.09441e+07 9.04756e+07 9.04756e+07 9.00094e+07 9.00094e+07 8.95455e+07 8.95455e+07 8.9084e+07 8.9084e+07 8.86248e+07 8.86248e+07 8.81678e+07 8.81678e+07 8.77131e+07 8.77131e+07 8.72607e+07 8.72607e+07 8.68106e+07 8.68106e+07 8.63627e+07 8.63627e+07 8.5917e+07 8.5917e+07 8.54735e+07 8.54735e+07 8.50322e+07 8.50322e+07 8.4593e+07 8.4593e+07 8.41561e+07 8.41561e+07 8.37213e+07 8.37213e+07 8.32886e+07 8.32886e+07 8.28581e+07 8.28581e+07 8.24297e+07 8.24297e+07 8.20034e+07 8.20034e+07 8.15791e+07 8.15791e+07 8.1157e+07 8.1157e+07 8.07369e+07 8.07369e+07 8.03189e+07 8.03189e+07 7.99029e+07 7.99029e+07 7.94889e+07 7.94889e+07 7.9077e+07 7.9077e+07 7.8667e+07 7.8667e+07 7.82591e+07 7.82591e+07 7.78531e+07 7.78531e+07 7.74491e+07 7.74491e+07 7.7047e+07 7.7047e+07 7.66469e+07 7.66469e+07 7.62488e+07 7.62488e+07 7.58525e+07 7.58525e+07 7.54582e+07 7.54582e+07 7.50657e+07 7.50657e+07 7.46752e+07 7.46752e+07 7.42865e+07 7.42865e+07 7.38997e+07 7.38997e+07 7.35147e+07 7.35147e+07 7.31316e+07 7.31316e+07 7.27503e+07 7.27503e+07 7.23708e+07 7.23708e+07 7.19932e+07 7.19932e+07 7.16173e+07 7.16173e+07 7.12432e+07 7.12432e+07 7.08709e+07 7.08709e+07 7.05004e+07 7.05004e+07 7.01316e+07 7.01316e+07 6.97646e+07 6.97646e+07 6.93994e+07 6.93994e+07 6.90358e+07 6.90358e+07 6.8674e+07 6.8674e+07 6.83138e+07 6.83138e+07 6.79554e+07 6.79554e+07 6.75986e+07 6.75986e+07 6.72436e+07 6.72436e+07 6.68902e+07 6.68902e+07 6.65384e+07 6.65384e+07 6.61883e+07 6.61883e+07 6.58399e+07 6.58399e+07 6.5493e+07 6.5493e+07 6.51478e+07 6.51478e+07 6.48042e+07 6.48042e+07 6.44622e+07 6.44622e+07 6.41218e+07 6.41218e+07 6.3783e+07 6.3783e+07 6.34457e+07 6.34457e+07 6.311e+07 6.311e+07 6.27759e+07 6.27759e+07 6.24433e+07 6.24433e+07 6.21123e+07 6.21123e+07 6.17827e+07 6.17827e+07 6.14547e+07 6.14547e+07 6.11283e+07 6.11283e+07 6.08033e+07 6.08033e+07 6.04798e+07 6.04798e+07 6.01578e+07 6.01578e+07 5.98372e+07 5.98372e+07 5.95182e+07 5.95182e+07 5.92006e+07 5.92006e+07 5.88844e+07 5.88844e+07 5.85697e+07 5.85697e+07 5.82564e+07 5.82564e+07 5.79446e+07 5.79446e+07 5.76342e+07 5.76342e+07 5.73251e+07 5.73251e+07 5.70175e+07 5.70175e+07 5.67113e+07 5.67113e+07 5.64065e+07 5.64065e+07 5.6103e+07 5.6103e+07 5.5801e+07 5.5801e+07 5.55003e+07 5.55003e+07 5.52009e+07 5.52009e+07 5.49029e+07 5.49029e+07 5.46062e+07 5.46062e+07 5.43109e+07 5.43109e+07 5.40169e+07 5.40169e+07 5.37242e+07 5.37242e+07 5.34328e+07 5.34328e+07 5.31428e+07 5.31428e+07 5.2854e+07 5.2854e+07 5.25665e+07 5.25665e+07 5.22803e+07 5.22803e+07 5.19954e+07 5.19954e+07 5.17117e+07 5.17117e+07 5.14293e+07 5.14293e+07 5.11482e+07 5.11482e+07 5.08683e+07 5.08683e+07 5.05897e+07 5.05897e+07 5.03123e+07 5.03123e+07 5.00361e+07 5.00361e+07 4.97611e+07 4.97611e+07 4.94874e+07 4.94874e+07 4.92148e+07 4.92148e+07 4.89435e+07 4.89435e+07 4.86733e+07 4.86733e+07 4.84044e+07 4.84044e+07 4.81366e+07 4.81366e+07 4.787e+07 4.787e+07 4.76045e+07 4.76045e+07 4.73402e+07 4.73402e+07 4.70771e+07 4.70771e+07 4.68151e+07 4.68151e+07 4.65543e+07 4.65543e+07 4.62946e+07 4.62946e+07 4.60361e+07 4.60361e+07 4.57786e+07 4.57786e+07 4.55223e+07 4.55223e+07 4.52671e+07 4.52671e+07 4.5013e+07 4.5013e+07 4.476e+07 4.476e+07 4.45081e+07 4.45081e+07 4.42573e+07 4.42573e+07 4.40075e+07 4.40075e+07 4.37589e+07 4.37589e+07 4.35113e+07 4.35113e+07 4.32648e+07 4.32648e+07 4.30193e+07 4.30193e+07 4.27749e+07 4.27749e+07 4.25316e+07 4.25316e+07 4.22892e+07 4.22892e+07 4.2048e+07 4.2048e+07 4.18077e+07 4.18077e+07 4.15685e+07 4.15685e+07 4.13303e+07 4.13303e+07 4.10931e+07 4.10931e+07 4.0857e+07 4.0857e+07 4.06218e+07 4.06218e+07 4.03876e+07 4.03876e+07 4.01545e+07 4.01545e+07 3.99223e+07 3.99223e+07 3.96911e+07 3.96911e+07 3.94608e+07 3.94608e+07 3.92316e+07 3.92316e+07 3.90033e+07 3.90033e+07 3.8776e+07 3.8776e+07 3.85497e+07 3.85497e+07 3.83242e+07 3.83242e+07 3.80998e+07 3.80998e+07 3.78763e+07 3.78763e+07 3.76537e+07 3.76537e+07 3.74321e+07 3.74321e+07 3.72114e+07 3.72114e+07 3.69916e+07 3.69916e+07 3.67727e+07 3.67727e+07 3.65547e+07 3.65547e+07 3.63377e+07 3.63377e+07 3.61216e+07 3.61216e+07 3.59063e+07 3.59063e+07 3.5692e+07 3.5692e+07 3.54785e+07 3.54785e+07 3.5266e+07 3.5266e+07 3.50543e+07 3.50543e+07 3.48435e+07 3.48435e+07 3.46335e+07 3.46335e+07 3.44245e+07 3.44245e+07 3.42163e+07 3.42163e+07 3.40089e+07 3.40089e+07 3.38024e+07 3.38024e+07 3.35968e+07 3.35968e+07 3.3392e+07 3.3392e+07 3.31881e+07 3.31881e+07 3.2985e+07 3.2985e+07 3.27827e+07 3.27827e+07 3.25812e+07 3.25812e+07 3.23806e+07 3.23806e+07 3.21808e+07 3.21808e+07 3.19818e+07 3.19818e+07 3.17837e+07 3.17837e+07 3.15863e+07 3.15863e+07 3.13897e+07 3.13897e+07 3.1194e+07 3.1194e+07 3.0999e+07 3.0999e+07 3.08049e+07 3.08049e+07 3.06115e+07 3.06115e+07 3.04189e+07 3.04189e+07 3.02271e+07 3.02271e+07 3.0036e+07 3.0036e+07 2.98458e+07 2.98458e+07 2.96563e+07 2.96563e+07 2.94675e+07 2.94675e+07 2.92796e+07 2.92796e+07 2.90923e+07 2.90923e+07 2.89059e+07 2.89059e+07 2.87202e+07 2.87202e+07 2.85352e+07 2.85352e+07 2.8351e+07 2.8351e+07 2.81675e+07 2.81675e+07 2.79848e+07 2.79848e+07 2.78027e+07 2.78027e+07 2.76215e+07 2.76215e+07 2.74409e+07 2.74409e+07 2.72611e+07 2.72611e+07 2.70819e+07 2.70819e+07 2.69035e+07 2.69035e+07 2.67258e+07 2.67258e+07 2.65488e+07 2.65488e+07 2.63725e+07 2.63725e+07 2.61969e+07 2.61969e+07 2.6022e+07 2.6022e+07 2.58478e+07 2.58478e+07 2.56743e+07 2.56743e+07 2.55015e+07 2.55015e+07 2.53294e+07 2.53294e+07 2.51579e+07 2.51579e+07 2.49871e+07 2.49871e+07 2.4817e+07 2.4817e+07 2.46475e+07 2.46475e+07 2.44788e+07 2.44788e+07 2.43107e+07 2.43107e+07 2.41432e+07 2.41432e+07 2.39764e+07 2.39764e+07 2.38103e+07 2.38103e+07 2.36448e+07 2.36448e+07 2.34799e+07 2.34799e+07 2.33157e+07 2.33157e+07 2.31522e+07 2.31522e+07 2.29892e+07 2.29892e+07 2.28269e+07 2.28269e+07 2.26653e+07 2.26653e+07 2.25043e+07 2.25043e+07 2.23439e+07 2.23439e+07 2.21841e+07 2.21841e+07 2.20249e+07 2.20249e+07 2.18664e+07 2.18664e+07 2.17085e+07 2.17085e+07 2.15512e+07 2.15512e+07 2.13944e+07 2.13944e+07 2.12383e+07 2.12383e+07 2.10828e+07 2.10828e+07 2.09279e+07 2.09279e+07 2.07736e+07 2.07736e+07 2.06199e+07 2.06199e+07 2.04668e+07 2.04668e+07 2.03143e+07 2.03143e+07 2.01624e+07 2.01624e+07 2.0011e+07 2.0011e+07 1.98602e+07 1.98602e+07 1.971e+07 1.971e+07 1.95604e+07 1.95604e+07 1.94113e+07 1.94113e+07 1.92629e+07 1.92629e+07 1.91149e+07 1.91149e+07 1.89676e+07 1.89676e+07 1.88208e+07 1.88208e+07 1.86746e+07 1.86746e+07 1.85289e+07 1.85289e+07 1.83838e+07 1.83838e+07 1.82392e+07 1.82392e+07 1.80952e+07 1.80952e+07 1.79517e+07 1.79517e+07 1.78088e+07 1.78088e+07 1.76664e+07 1.76664e+07 1.75245e+07 1.75245e+07 1.73832e+07 1.73832e+07 1.72424e+07 1.72424e+07 1.71022e+07 1.71022e+07 1.69625e+07 1.69625e+07 1.68233e+07 1.68233e+07 1.66846e+07 1.66846e+07 1.65464e+07 1.65464e+07 1.64088e+07 1.64088e+07 1.62717e+07 1.62717e+07 1.61351e+07 1.61351e+07 1.5999e+07 1.5999e+07 1.58634e+07 1.58634e+07 1.57284e+07 1.57284e+07 1.55938e+07 1.55938e+07 1.54597e+07 1.54597e+07 1.53262e+07 1.53262e+07 1.51931e+07 1.51931e+07 1.50605e+07 1.50605e+07 1.49285e+07 1.49285e+07 1.47969e+07 1.47969e+07 1.46658e+07 1.46658e+07 1.45352e+07 1.45352e+07 1.4405e+07 1.4405e+07 1.42754e+07 1.42754e+07 1.41462e+07 1.41462e+07 1.40176e+07 1.40176e+07 1.38894e+07 1.38894e+07 1.37616e+07 1.37616e+07 1.36344e+07 1.36344e+07 1.35076e+07 1.35076e+07 1.33813e+07 1.33813e+07 1.32554e+07 1.32554e+07 1.313e+07 1.313e+07 1.30051e+07 1.30051e+07 1.28806e+07 1.28806e+07 1.27566e+07 1.27566e+07 1.2633e+07 1.2633e+07 1.25099e+07 1.25099e+07 1.23873e+07 1.23873e+07 1.22651e+07 1.22651e+07 1.21433e+07 1.21433e+07 1.2022e+07 1.2022e+07 1.19011e+07 1.19011e+07 1.17807e+07 1.17807e+07 1.16607e+07 1.16607e+07 1.15412e+07 1.15412e+07 1.14221e+07 1.14221e+07 1.13034e+07 1.13034e+07 1.11851e+07 1.11851e+07 1.10673e+07 1.10673e+07 1.09499e+07 1.09499e+07 1.0833e+07 1.0833e+07 1.07164e+07 1.07164e+07 1.06003e+07 1.06003e+07 1.04846e+07 1.04846e+07 1.03693e+07 1.03693e+07 1.02545e+07 1.02545e+07 1.014e+07 1.014e+07 1.0026e+07 1.0026e+07 9.91236e+06 9.91236e+06 9.79915e+06 9.79915e+06 9.68634e+06 9.68634e+06 9.57394e+06 9.57394e+06 9.46195e+06 9.46195e+06 9.35036e+06 9.35036e+06 9.23917e+06 9.23917e+06 9.12838e+06 9.12838e+06 9.01799e+06 9.01799e+06 8.90799e+06 8.90799e+06 8.79839e+06 8.79839e+06 8.68918e+06 8.68918e+06 8.58036e+06 8.58036e+06 8.47193e+06 8.47193e+06 8.36388e+06 8.36388e+06 8.25622e+06 8.25622e+06 8.14895e+06 8.14895e+06 8.04206e+06 8.04206e+06 7.93555e+06 7.93555e+06 7.82942e+06 7.82942e+06 7.72366e+06 7.72366e+06 7.61829e+06 7.61829e+06 7.51328e+06 7.51328e+06 7.40865e+06 7.40865e+06 7.30439e+06 7.30439e+06 7.2005e+06 7.2005e+06 7.09698e+06 7.09698e+06 6.9938