# vtk DataFile Version 3.0
#This file was generated by the deal.II library on 2020/9/6 at 2:48:33
ASCII
DATASET UNSTRUCTURED_GRID

POINTS 4096 double
1.5 0 0
1.59692 0 0
1.59692 0 0
1.69385 0 0
1.69385 0 0
1.79077 0 0
1.79077 0 0
1.8877 0 0
1.8877 0 0
1.98462 0 0
1.98462 0 0
2.08154 0 0
2.08154 0 0
2.17847 0 0
2.17847 0 0
2.27539 0 0
2.27539 0 0
2.37231 0 0
2.37231 0 0
2.46924 0 0
2.46924 0 0
2.56616 0 0
2.56616 0 0
2.66309 0 0
2.66309 0 0
2.76001 0 0
2.76001 0 0
2.85693 0 0
2.85693 0 0
2.95386 0 0
2.95386 0 0
3.05078 0 0
3.05078 0 0
3.14771 0 0
3.14771 0 0
3.24463 0 0
3.24463 0 0
3.34155 0 0
3.34155 0 0
3.43848 0 0
3.43848 0 0
3.5354 0 0
3.5354 0 0
3.63232 0 0
3.63232 0 0
3.72925 0 0
3.72925 0 0
3.82617 0 0
3.82617 0 0
3.9231 0 0
3.9231 0 0
4.02002 0 0
4.02002 0 0
4.11694 0 0
4.11694 0 0
4.21387 0 0
4.21387 0 0
4.31079 0 0
4.31079 0 0
4.40771 0 0
4.40771 0 0
4.50464 0 0
4.50464 0 0
4.60156 0 0
4.60156 0 0
4.69849 0 0
4.69849 0 0
4.79541 0 0
4.79541 0 0
4.89233 0 0
4.89233 0 0
4.98926 0 0
4.98926 0 0
5.08618 0 0
5.08618 0 0
5.18311 0 0
5.18311 0 0
5.28003 0 0
5.28003 0 0
5.37695 0 0
5.37695 0 0
5.47388 0 0
5.47388 0 0
5.5708 0 0
5.5708 0 0
5.66772 0 0
5.66772 0 0
5.76465 0 0
5.76465 0 0
5.86157 0 0
5.86157 0 0
5.9585 0 0
5.9585 0 0
6.05542 0 0
6.05542 0 0
6.15234 0 0
6.15234 0 0
6.24927 0 0
6.24927 0 0
6.34619 0 0
6.34619 0 0
6.44312 0 0
6.44312 0 0
6.54004 0 0
6.54004 0 0
6.63696 0 0
6.63696 0 0
6.73389 0 0
6.73389 0 0
6.83081 0 0
6.83081 0 0
6.92773 0 0
6.92773 0 0
7.02466 0 0
7.02466 0 0
7.12158 0 0
7.12158 0 0
7.21851 0 0
7.21851 0 0
7.31543 0 0
7.31543 0 0
7.41235 0 0
7.41235 0 0
7.50928 0 0
7.50928 0 0
7.6062 0 0
7.6062 0 0
7.70312 0 0
7.70312 0 0
7.80005 0 0
7.80005 0 0
7.89697 0 0
7.89697 0 0
7.9939 0 0
7.9939 0 0
8.09082 0 0
8.09082 0 0
8.18774 0 0
8.18774 0 0
8.28467 0 0
8.28467 0 0
8.38159 0 0
8.38159 0 0
8.47852 0 0
8.47852 0 0
8.57544 0 0
8.57544 0 0
8.67236 0 0
8.67236 0 0
8.76929 0 0
8.76929 0 0
8.86621 0 0
8.86621 0 0
8.96313 0 0
8.96313 0 0
9.06006 0 0
9.06006 0 0
9.15698 0 0
9.15698 0 0
9.25391 0 0
9.25391 0 0
9.35083 0 0
9.35083 0 0
9.44775 0 0
9.44775 0 0
9.54468 0 0
9.54468 0 0
9.6416 0 0
9.6416 0 0
9.73853 0 0
9.73853 0 0
9.83545 0 0
9.83545 0 0
9.93237 0 0
9.93237 0 0
10.0293 0 0
10.0293 0 0
10.1262 0 0
10.1262 0 0
10.2231 0 0
10.2231 0 0
10.3201 0 0
10.3201 0 0
10.417 0 0
10.417 0 0
10.5139 0 0
10.5139 0 0
10.6108 0 0
10.6108 0 0
10.7078 0 0
10.7078 0 0
10.8047 0 0
10.8047 0 0
10.9016 0 0
10.9016 0 0
10.9985 0 0
10.9985 0 0
11.0955 0 0
11.0955 0 0
11.1924 0 0
11.1924 0 0
11.2893 0 0
11.2893 0 0
11.3862 0 0
11.3862 0 0
11.4832 0 0
11.4832 0 0
11.5801 0 0
11.5801 0 0
11.677 0 0
11.677 0 0
11.7739 0 0
11.7739 0 0
11.8708 0 0
11.8708 0 0
11.9678 0 0
11.9678 0 0
12.0647 0 0
12.0647 0 0
12.1616 0 0
12.1616 0 0
12.2585 0 0
12.2585 0 0
12.3555 0 0
12.3555 0 0
12.4524 0 0
12.4524 0 0
12.5493 0 0
12.5493 0 0
12.6462 0 0
12.6462 0 0
12.7432 0 0
12.7432 0 0
12.8401 0 0
12.8401 0 0
12.937 0 0
12.937 0 0
13.0339 0 0
13.0339 0 0
13.1309 0 0
13.1309 0 0
13.2278 0 0
13.2278 0 0
13.3247 0 0
13.3247 0 0
13.4216 0 0
13.4216 0 0
13.5186 0 0
13.5186 0 0
13.6155 0 0
13.6155 0 0
13.7124 0 0
13.7124 0 0
13.8093 0 0
13.8093 0 0
13.9062 0 0
13.9062 0 0
14.0032 0 0
14.0032 0 0
14.1001 0 0
14.1001 0 0
14.197 0 0
14.197 0 0
14.2939 0 0
14.2939 0 0
14.3909 0 0
14.3909 0 0
14.4878 0 0
14.4878 0 0
14.5847 0 0
14.5847 0 0
14.6816 0 0
14.6816 0 0
14.7786 0 0
14.7786 0 0
14.8755 0 0
14.8755 0 0
14.9724 0 0
14.9724 0 0
15.0693 0 0
15.0693 0 0
15.1663 0 0
15.1663 0 0
15.2632 0 0
15.2632 0 0
15.3601 0 0
15.3601 0 0
15.457 0 0
15.457 0 0
15.554 0 0
15.554 0 0
15.6509 0 0
15.6509 0 0
15.7478 0 0
15.7478 0 0
15.8447 0 0
15.8447 0 0
15.9417 0 0
15.9417 0 0
16.0386 0 0
16.0386 0 0
16.1355 0 0
16.1355 0 0
16.2324 0 0
16.2324 0 0
16.3293 0 0
16.3293 0 0
16.4263 0 0
16.4263 0 0
16.5232 0 0
16.5232 0 0
16.6201 0 0
16.6201 0 0
16.717 0 0
16.717 0 0
16.814 0 0
16.814 0 0
16.9109 0 0
16.9109 0 0
17.0078 0 0
17.0078 0 0
17.1047 0 0
17.1047 0 0
17.2017 0 0
17.2017 0 0
17.2986 0 0
17.2986 0 0
17.3955 0 0
17.3955 0 0
17.4924 0 0
17.4924 0 0
17.5894 0 0
17.5894 0 0
17.6863 0 0
17.6863 0 0
17.7832 0 0
17.7832 0 0
17.8801 0 0
17.8801 0 0
17.9771 0 0
17.9771 0 0
18.074 0 0
18.074 0 0
18.1709 0 0
18.1709 0 0
18.2678 0 0
18.2678 0 0
18.3647 0 0
18.3647 0 0
18.4617 0 0
18.4617 0 0
18.5586 0 0
18.5586 0 0
18.6555 0 0
18.6555 0 0
18.7524 0 0
18.7524 0 0
18.8494 0 0
18.8494 0 0
18.9463 0 0
18.9463 0 0
19.0432 0 0
19.0432 0 0
19.1401 0 0
19.1401 0 0
19.2371 0 0
19.2371 0 0
19.334 0 0
19.334 0 0
19.4309 0 0
19.4309 0 0
19.5278 0 0
19.5278 0 0
19.6248 0 0
19.6248 0 0
19.7217 0 0
19.7217 0 0
19.8186 0 0
19.8186 0 0
19.9155 0 0
19.9155 0 0
20.0125 0 0
20.0125 0 0
20.1094 0 0
20.1094 0 0
20.2063 0 0
20.2063 0 0
20.3032 0 0
20.3032 0 0
20.4001 0 0
20.4001 0 0
20.4971 0 0
20.4971 0 0
20.594 0 0
20.594 0 0
20.6909 0 0
20.6909 0 0
20.7878 0 0
20.7878 0 0
20.8848 0 0
20.8848 0 0
20.9817 0 0
20.9817 0 0
21.0786 0 0
21.0786 0 0
21.1755 0 0
21.1755 0 0
21.2725 0 0
21.2725 0 0
21.3694 0 0
21.3694 0 0
21.4663 0 0
21.4663 0 0
21.5632 0 0
21.5632 0 0
21.6602 0 0
21.6602 0 0
21.7571 0 0
21.7571 0 0
21.854 0 0
21.854 0 0
21.9509 0 0
21.9509 0 0
22.0479 0 0
22.0479 0 0
22.1448 0 0
22.1448 0 0
22.2417 0 0
22.2417 0 0
22.3386 0 0
22.3386 0 0
22.4355 0 0
22.4355 0 0
22.5325 0 0
22.5325 0 0
22.6294 0 0
22.6294 0 0
22.7263 0 0
22.7263 0 0
22.8232 0 0
22.8232 0 0
22.9202 0 0
22.9202 0 0
23.0171 0 0
23.0171 0 0
23.114 0 0
23.114 0 0
23.2109 0 0
23.2109 0 0
23.3079 0 0
23.3079 0 0
23.4048 0 0
23.4048 0 0
23.5017 0 0
23.5017 0 0
23.5986 0 0
23.5986 0 0
23.6956 0 0
23.6956 0 0
23.7925 0 0
23.7925 0 0
23.8894 0 0
23.8894 0 0
23.9863 0 0
23.9863 0 0
24.0833 0 0
24.0833 0 0
24.1802 0 0
24.1802 0 0
24.2771 0 0
24.2771 0 0
24.374 0 0
24.374 0 0
24.4709 0 0
24.4709 0 0
24.5679 0 0
24.5679 0 0
24.6648 0 0
24.6648 0 0
24.7617 0 0
24.7617 0 0
24.8586 0 0
24.8586 0 0
24.9556 0 0
24.9556 0 0
25.0525 0 0
25.0525 0 0
25.1494 0 0
25.1494 0 0
25.2463 0 0
25.2463 0 0
25.3433 0 0
25.3433 0 0
25.4402 0 0
25.4402 0 0
25.5371 0 0
25.5371 0 0
25.634 0 0
25.634 0 0
25.731 0 0
25.731 0 0
25.8279 0 0
25.8279 0 0
25.9248 0 0
25.9248 0 0
26.0217 0 0
26.0217 0 0
26.1187 0 0
26.1187 0 0
26.2156 0 0
26.2156 0 0
26.3125 0 0
26.3125 0 0
26.4094 0 0
26.4094 0 0
26.5063 0 0
26.5063 0 0
26.6033 0 0
26.6033 0 0
26.7002 0 0
26.7002 0 0
26.7971 0 0
26.7971 0 0
26.894 0 0
26.894 0 0
26.991 0 0
26.991 0 0
27.0879 0 0
27.0879 0 0
27.1848 0 0
27.1848 0 0
27.2817 0 0
27.2817 0 0
27.3787 0 0
27.3787 0 0
27.4756 0 0
27.4756 0 0
27.5725 0 0
27.5725 0 0
27.6694 0 0
27.6694 0 0
27.7664 0 0
27.7664 0 0
27.8633 0 0
27.8633 0 0
27.9602 0 0
27.9602 0 0
28.0571 0 0
28.0571 0 0
28.1541 0 0
28.1541 0 0
28.251 0 0
28.251 0 0
28.3479 0 0
28.3479 0 0
28.4448 0 0
28.4448 0 0
28.5417 0 0
28.5417 0 0
28.6387 0 0
28.6387 0 0
28.7356 0 0
28.7356 0 0
28.8325 0 0
28.8325 0 0
28.9294 0 0
28.9294 0 0
29.0264 0 0
29.0264 0 0
29.1233 0 0
29.1233 0 0
29.2202 0 0
29.2202 0 0
29.3171 0 0
29.3171 0 0
29.4141 0 0
29.4141 0 0
29.511 0 0
29.511 0 0
29.6079 0 0
29.6079 0 0
29.7048 0 0
29.7048 0 0
29.8018 0 0
29.8018 0 0
29.8987 0 0
29.8987 0 0
29.9956 0 0
29.9956 0 0
30.0925 0 0
30.0925 0 0
30.1895 0 0
30.1895 0 0
30.2864 0 0
30.2864 0 0
30.3833 0 0
30.3833 0 0
30.4802 0 0
30.4802 0 0
30.5771 0 0
30.5771 0 0
30.6741 0 0
30.6741 0 0
30.771 0 0
30.771 0 0
30.8679 0 0
30.8679 0 0
30.9648 0 0
30.9648 0 0
31.0618 0 0
31.0618 0 0
31.1587 0 0
31.1587 0 0
31.2556 0 0
31.2556 0 0
31.3525 0 0
31.3525 0 0
31.4495 0 0
31.4495 0 0
31.5464 0 0
31.5464 0 0
31.6433 0 0
31.6433 0 0
31.7402 0 0
31.7402 0 0
31.8372 0 0
31.8372 0 0
31.9341 0 0
31.9341 0 0
32.031 0 0
32.031 0 0
32.1279 0 0
32.1279 0 0
32.2249 0 0
32.2249 0 0
32.3218 0 0
32.3218 0 0
32.4187 0 0
32.4187 0 0
32.5156 0 0
32.5156 0 0
32.6125 0 0
32.6125 0 0
32.7095 0 0
32.7095 0 0
32.8064 0 0
32.8064 0 0
32.9033 0 0
32.9033 0 0
33.0002 0 0
33.0002 0 0
33.0972 0 0
33.0972 0 0
33.1941 0 0
33.1941 0 0
33.291 0 0
33.291 0 0
33.3879 0 0
33.3879 0 0
33.4849 0 0
33.4849 0 0
33.5818 0 0
33.5818 0 0
33.6787 0 0
33.6787 0 0
33.7756 0 0
33.7756 0 0
33.8726 0 0
33.8726 0 0
33.9695 0 0
33.9695 0 0
34.0664 0 0
34.0664 0 0
34.1633 0 0
34.1633 0 0
34.2603 0 0
34.2603 0 0
34.3572 0 0
34.3572 0 0
34.4541 0 0
34.4541 0 0
34.551 0 0
34.551 0 0
34.6479 0 0
34.6479 0 0
34.7449 0 0
34.7449 0 0
34.8418 0 0
34.8418 0 0
34.9387 0 0
34.9387 0 0
35.0356 0 0
35.0356 0 0
35.1326 0 0
35.1326 0 0
35.2295 0 0
35.2295 0 0
35.3264 0 0
35.3264 0 0
35.4233 0 0
35.4233 0 0
35.5203 0 0
35.5203 0 0
35.6172 0 0
35.6172 0 0
35.7141 0 0
35.7141 0 0
35.811 0 0
35.811 0 0
35.908 0 0
35.908 0 0
36.0049 0 0
36.0049 0 0
36.1018 0 0
36.1018 0 0
36.1987 0 0
36.1987 0 0
36.2957 0 0
36.2957 0 0
36.3926 0 0
36.3926 0 0
36.4895 0 0
36.4895 0 0
36.5864 0 0
36.5864 0 0
36.6833 0 0
36.6833 0 0
36.7803 0 0
36.7803 0 0
36.8772 0 0
36.8772 0 0
36.9741 0 0
36.9741 0 0
37.071 0 0
37.071 0 0
37.168 0 0
37.168 0 0
37.2649 0 0
37.2649 0 0
37.3618 0 0
37.3618 0 0
37.4587 0 0
37.4587 0 0
37.5557 0 0
37.5557 0 0
37.6526 0 0
37.6526 0 0
37.7495 0 0
37.7495 0 0
37.8464 0 0
37.8464 0 0
37.9434 0 0
37.9434 0 0
38.0403 0 0
38.0403 0 0
38.1372 0 0
38.1372 0 0
38.2341 0 0
38.2341 0 0
38.3311 0 0
38.3311 0 0
38.428 0 0
38.428 0 0
38.5249 0 0
38.5249 0 0
38.6218 0 0
38.6218 0 0
38.7188 0 0
38.7188 0 0
38.8157 0 0
38.8157 0 0
38.9126 0 0
38.9126 0 0
39.0095 0 0
39.0095 0 0
39.1064 0 0
39.1064 0 0
39.2034 0 0
39.2034 0 0
39.3003 0 0
39.3003 0 0
39.3972 0 0
39.3972 0 0
39.4941 0 0
39.4941 0 0
39.5911 0 0
39.5911 0 0
39.688 0 0
39.688 0 0
39.7849 0 0
39.7849 0 0
39.8818 0 0
39.8818 0 0
39.9788 0 0
39.9788 0 0
40.0757 0 0
40.0757 0 0
40.1726 0 0
40.1726 0 0
40.2695 0 0
40.2695 0 0
40.3665 0 0
40.3665 0 0
40.4634 0 0
40.4634 0 0
40.5603 0 0
40.5603 0 0
40.6572 0 0
40.6572 0 0
40.7542 0 0
40.7542 0 0
40.8511 0 0
40.8511 0 0
40.948 0 0
40.948 0 0
41.0449 0 0
41.0449 0 0
41.1418 0 0
41.1418 0 0
41.2388 0 0
41.2388 0 0
41.3357 0 0
41.3357 0 0
41.4326 0 0
41.4326 0 0
41.5295 0 0
41.5295 0 0
[...]
POINT_DATA 4096
SCALARS solution_0 double 1
LOOKUP_TABLE default
53.6762 52.552 52.552 51.6002 51.6002 50.786 50.786 50.0829 50.0829 49.4702 49.4702 48.9315 48.9315 48.4539 48.4539 48.0271 48.0271 47.6425 47.6425 47.2934 47.2934 46.9741 46.9741 46.6798 46.6798 46.4068 46.4068 46.1518 46.1518 45.9119 45.9119 45.685 45.685 45.469 45.469 45.2624 45.2624 45.0636 45.0636 44.8715 44.8715 44.685 44.685 44.5033 44.5033 44.3255 44.3255 44.151 44.151 43.9793 43.9793 43.8097 43.8097 43.642 43.642 43.4758 43.4758 43.3106 43.3106 43.1463 43.1463 42.9827 42.9827 42.8194 42.8194 42.6564 42.6564 42.4935 42.4935 42.3305 42.3305 42.1674 42.1674 42.0041 42.0041 41.8405 41.8405 41.6764 41.6764 41.512 41.512 41.3471 41.3471 41.1818 41.1818 41.0159 41.0159 40.8495 40.8495 40.6825 40.6825 40.515 40.515 40.3469 40.3469 40.1783 40.1783 40.0092 40.0092 39.8395 39.8395 39.6693 39.6693 39.4986 39.4986 39.3274 39.3274 39.1557 39.1557 38.9836 38.9836 38.8111 38.8111 38.6382 38.6382 38.4648 38.4648 38.2911 38.2911 38.1171 38.1171 37.9428 37.9428 37.7682 37.7682 37.5933 37.5933 37.4181 37.4181 37.2428 37.2428 37.0673 37.0673 36.8916 36.8916 36.7158 36.7158 36.5398 36.5398 36.3638 36.3638 36.1877 36.1877 36.0116 36.0116 35.8354 35.8354 35.6592 35.6592 35.4831 35.4831 35.3071 35.3071 35.1311 35.1311 34.9551 34.9551 34.7794 34.7794 34.6037 34.6037 34.4282 34.4282 34.2529 34.2529 34.0777 34.0777 33.9028 33.9028 33.7281 33.7281 33.5537 33.5537 33.3795 33.3795 33.2056 33.2056 33.032 33.032 32.8587 32.8587 32.6858 32.6858 32.5132 32.5132 32.341 32.341 32.1691 32.1691 31.9976 31.9976 31.8266 31.8266 31.6559 31.6559 31.4857 31.4857 31.3159 31.3159 31.1466 31.1466 30.9778 30.9778 30.8094 30.8094 30.6416 30.6416 30.4742 30.4742 30.3074 30.3074 30.1411 30.1411 29.9754 29.9754 29.8102 29.8102 29.6456 29.6456 29.4815 29.4815 29.3181 29.3181 29.1553 29.1553 28.9931 28.9931 28.8315 28.8315 28.6705 28.6705 28.5102 28.5102 28.3505 28.3505 28.1914 28.1914 28.033 28.033 27.8753 27.8753 27.7182 27.7182 27.5617 27.5617 27.4059 27.4059 27.2507 27.2507 27.0961 27.0961 26.9421 26.9421 26.7887 26.7887 26.6358 26.6358 26.4836 26.4836 26.3318 26.3318 26.1806 26.1806 26.0299 26.0299 25.8797 25.8797 25.73 25.73 25.5807 25.5807 25.4319 25.4319 25.2835 25.2835 25.1355 25.1355 24.988 24.988 24.8409 24.8409 24.6943 24.6943 24.5481 24.5481 24.4023 24.4023 24.257 24.257 24.1122 24.1122 23.9679 23.9679 23.8241 23.8241 23.6808 23.6808 23.5382 23.5382 23.3961 23.3961 23.2546 23.2546 23.1138 23.1138 22.9736 22.9736 22.8341 22.8341 22.6954 22.6954 22.5573 22.5573 22.4199 22.4199 22.2832 22.2832 22.1471 22.1471 22.0115 22.0115 21.8763 21.8763 21.7412 21.7412 21.606 21.606 21.4703 21.4703 21.3337 21.3337 21.1954 21.1954 21.0549 21.0549 20.9114 20.9114 20.7638 20.7638 20.6114 20.6114 20.4533 20.4533 20.2886 20.2886 20.1169 20.1169 19.9378 19.9378 19.7515 19.7515 19.5587 19.5587 19.3607 19.3607 19.1591 19.1591 18.9564 18.9564 18.7551 18.7551 18.5581 18.5581 18.3683 18.3683 18.1884 18.1884 18.0207 18.0207 17.8666 17.8666 17.7271 17.7271 17.6024 17.6024 17.492 17.492 17.3951 17.3951 17.3105 17.3105 17.2373 17.2373 17.1749 17.1749 17.1227 17.1227 17.0811 17.0811 17.0507 17.0507 17.0323 17.0323 17.0272 17.0272 17.0364 17.0364 17.0608 17.0608 17.1013 17.1013 17.158 17.158 17.231 17.231 17.32 17.32 17.4243 17.4243 17.543 17.543 17.6747 17.6747 17.8178 17.8178 17.9705 17.9705 18.1304 18.1304 18.2949 18.2949 18.4609 18.4609 18.6254 18.6254 18.7847 18.7847 18.9353 18.9353 19.0735 19.0735 19.1958 19.1958 19.2987 19.2987 19.3788 19.3788 19.4333 19.4333 19.4595 19.4595 19.4553 19.4553 19.4193 19.4193 19.3505 19.3505 19.2486 19.2486 19.1138 19.1138 18.9472 18.9472 18.7504 18.7504 18.5255 18.5255 18.275 18.275 18.0022 18.0022 17.7105 17.7105 17.4034 17.4034 17.0847 17.0847 16.7583 16.7583 16.4278 16.4278 16.0969 16.0969 15.7689 15.7689 15.4468 15.4468 15.1332 15.1332 14.8304 14.8304 14.5403 14.5403 14.2642 14.2642 14.0031 14.0031 13.7576 13.7576 13.528 13.528 13.314 13.314 13.1154 13.1154 12.9315 12.9315 12.7615 12.7615 12.6045 12.6045 12.4594 12.4594 12.3251 12.3251 12.2006 12.2006 12.0848 12.0848 11.9766 11.9766 11.8751 11.8751 11.7794 11.7794 11.6886 11.6886 11.6021 11.6021 11.5191 11.5191 11.4393 11.4393 11.3619 11.3619 11.2867 11.2867 11.2134 11.2134 11.1416 11.1416 11.071 11.071 11.0016 11.0016 10.9332 10.9332 10.8656 10.8656 10.7988 10.7988 10.7327 10.7327 10.6672 10.6672 10.6024 10.6024 10.538 10.538 10.4743 10.4743 10.411 10.411 10.3482 10.3482 10.2859 10.2859 10.2241 10.2241 10.1628 10.1628 10.1019 10.1019 10.0415 10.0415 9.98155 9.98155 9.92203 9.92203 9.86296 9.86296 9.80431 9.80431 9.74611 9.74611 9.68833 9.68833 9.63097 9.63097 9.57403 9.57403 9.51752 9.51752 9.46141 9.46141 9.40571 9.40571 9.35041 9.35041 9.29552 9.29552 9.24102 9.24102 9.18692 9.18692 9.13321 9.13321 9.07988 9.07988 9.02693 9.02693 8.97437 8.97437 8.92217 8.92217 8.87036 8.87036 8.8189 8.8189 8.76782 8.76782 8.71709 8.71709 8.66673 8.66673 8.61672 8.61672 8.56706 8.56706 8.51775 8.51775 8.46878 8.46878 8.42016 8.42016 8.37187 8.37187 8.32393 8.32393 8.27631 8.27631 8.22902 8.22902 8.18207 8.18207 8.13543 8.13543 8.08912 8.08912 8.04312 8.04312 7.99744 7.99744 7.95207 7.95207 7.90702 7.90702 7.86227 7.86227 7.81782 7.81782 7.77367 7.77367 7.72983 7.72983 7.68627 7.68627 7.64302 7.64302 7.60005 7.60005 7.55737 7.55737 7.51498 7.51498 7.47287 7.47287 7.43104 7.43104 7.38949 7.38949 7.34821 7.34821 7.30721 7.30721 7.26648 7.26648 7.22602 7.22602 7.18583 7.18583 7.14589 7.14589 7.10622 7.10622 7.06681 7.06681 7.02766 7.02766 6.98876 6.98876 6.95012 6.95012 6.91172 6.91172 6.87358 6.87358 6.83568 6.83568 6.79802 6.79802 6.76061 6.76061 6.72344 6.72344 6.6865 6.6865 6.6498 6.6498 6.61334 6.61334 6.57711 6.57711 6.5411 6.5411 6.50533 6.50533 6.46978 6.46978 6.43446 6.43446 6.39936 6.39936 6.36448 6.36448 6.32982 6.32982 6.29538 6.29538 6.26115 6.26115 6.22713 6.22713 6.19333 6.19333 6.15974 6.15974 6.12635 6.12635 6.09317 6.09317 6.0602 6.0602 6.02743 6.02743 5.99486 5.99486 5.9625 5.9625 5.93033 5.93033 5.89835 5.89835 5.86657 5.86657 5.83499 5.83499 5.8036 5.8036 5.7724 5.7724 5.74138 5.74138 5.71056 5.71056 5.67992 5.67992 5.64946 5.64946 5.61919 5.61919 5.5891 5.5891 5.55919 5.55919 5.52946 5.52946 5.4999 5.4999 5.47053 5.47053 5.44132 5.44132 5.41229 5.41229 5.38343 5.38343 5.35475 5.35475 5.32623 5.32623 5.29787 5.29787 5.26969 5.26969 5.24167 5.24167 5.21382 5.21382 5.18612 5.18612 5.15859 5.15859 5.13122 5.13122 5.10401 5.10401 5.07695 5.07695 5.05006 5.05006 5.02331 5.02331 4.99673 4.99673 4.97029 4.97029 4.94401 4.94401 4.91787 4.91787 4.89189 4.89189 4.86606 4.86606 4.84037 4.84037 4.81483 4.81483 4.78943 4.78943 4.76418 4.76418 4.73907 4.73907 4.71411 4.71411 4.68928 4.68928 4.66459 4.66459 4.64005 4.64005 4.61564 4.61564 4.59136 4.59136 4.56723 4.56723 4.54322 4.54322 4.51936 4.51936 4.49562 4.49562 4.47202 4.47202 4.44854 4.44854 4.4252 4.4252 4.40199 4.40199 4.3789 4.3789 4.35594 4.35594 4.33311 4.33311 4.3104 4.3104 4.28782 4.28782 4.26536 4.26536 4.24302 4.24302 4.22081 4.22081 4.19871 4.19871 4.17674 4.17674 4.15488 4.15488 4.13315 4.13315 4.11153 4.11153 4.09002 4.09002 4.06864 4.06864 4.04736 4.04736 4.02621 4.02621 4.00516 4.00516 3.98423 3.98423 3.96341 3.96341 3.9427 3.9427 3.9221 3.9221 3.90161 3.90161 3.88123 3.88123 3.86096 3.86096 3.8408 3.8408 3.82074 3.82074 3.80078 3.80078 3.78094 3.78094 3.76119 3.76119 3.74155 3.74155 3.72201 3.72201 3.70258 3.70258 3.68325 3.68325 3.66401 3.66401 3.64488 3.64488 3.62585 3.62585 3.60691 3.60691 3.58808 3.58808 3.56934 3.56934 3.5507 3.5507 3.53215 3.53215 3.5137 3.5137 3.49534 3.49534 3.47708 3.47708 3.45891 3.45891 3.44084 3.44084 3.42286 3.42286 3.40497 3.40497 3.38717 3.38717 3.36946 3.36946 3.35184 3.35184 3.33431 3.33431 3.31687 3.31687 3.29951 3.29951 3.28225 3.28225 3.26507 3.26507 3.24798 3.24798 3.23097 3.23097 3.21405 3.21405 3.19721 3.19721 3.18046 3.18046 3.16379 3.16379 3.14721 3.14721 3.1307 3.1307 3.11428 3.11428 3.09794 3.09794 3.08169 3.08169 3.06551 3.06551 3.04941 3.04941 3.03339 3.03339 3.01745 3.01745 3.00159 3.00159 2.98581 2.98581 2.9701 2.9701 2.95447 2.95447 2.93892 2.93892 2.92345 2.92345 2.90805 2.90805 2.89272 2.89272 2.87747 2.87747 2.86229 2.86229 2.84719 2.84719 2.83216 2.83216 2.8172 2.8172 2.80232 2.80232 2.7875 2.7875 2.77276 2.77276 2.75809 2.75809 2.74349 2.74349 2.72896 2.72896 2.7145 2.7145 2.70011 2.70011 2.68578 2.68578 2.67153 2.67153 2.65734 2.65734 2.64322 2.64322 2.62917 2.62917 2.61518 2.61518 2.60126 2.60126 2.58741 2.58741 2.57362 2.57362 2.5599 2.5599 2.54624 2.54624 2.53265 2.53265 2.51912 2.51912 2.50565 2.50565 2.49225 2.49225 2.47891 2.47891 2.46563 2.46563 2.45241 2.45241 2.43926 2.43926 2.42616 2.42616 2.41313 2.41313 2.40016 2.40016 2.38725 2.38725 2.37439 2.37439 2.3616 2.3616 2.34887 2.34887 2.33619 2.33619 2.32357 2.32357 2.31102 2.31102 2.29852 2.29852 2.28607 2.28607 2.27369 2.27369 2.26136 2.26136 2.24908 2.24908 2.23687 2.23687 2.2247 2.2247 2.2126 2.2126 2.20055 2.20055 2.18855 2.18855 2.17661 2.17661 2.16472 2.16472 2.15289 2.15289 2.14111 2.14111 2.12938 2.12938 2.1177 2.1177 2.10608 2.10608 2.09451 2.09451 2.08299 2.08299 2.07153 2.07153 2.06011 2.06011 2.04875 2.04875 2.03744 2.03744 2.02617 2.02617 2.01496 2.01496 2.0038 2.0038 1.99269 1.99269 1.98162 1.98162 1.97061 1.97061 1.95965 1.95965 1.94873 1.94873 1.93786 1.93786 1.92704 1.92704 1.91627 1.91627 1.90554 1.90554 1.89486 1.89486 1.88423 1.88423 1.87365 1.87365 1.86311 1.86311 1.85262 1.85262 1.84217 1.84217 1.83177 1.83177 1.82142 1.82142 1.81111 1.81111 1.80084 1.80084 1.79062 1.79062 1.78045 1.78045 1.77032 1.77032 1.76023 1.76023 1.75018 1.75018 1.74018 1.74018 1.73022 1.73022 1.72031 1.72031 1.71044 1.71044 1.70061 1.70061 1.69082 1.69082 1.68108 1.68108 1.67137 1.67137 1.66171 1.66171 1.65209 1.65209 1.64251 1.64251 1.63297 1.63297 1.62348 1.62348 1.61402 1.61402 1.6046 1.6046 1.59522 1.59522 1.58589 1.58589 1.57659 1.57659 1.56733 1.56733 1.55811 1.55811 1.54893 1.54893 1.53979 1.53979 1.53069 1.53069 1.52162 1.52162 1.5126 1.5126 1.50361 1.50361 1.49466 1.49466 1.48575 1.48575 1.47687 1.47687 1.46803 1.46803 1.45923 1.45923 1.45047 1.45047 1.44174 1.44174 1.43305 1.43305 1.42439 1.42439 1.41577 1.41577 1.40719 1.40719 1.39864 1.39864 1.39013 1.39013 1.38165 1.38165 1.37321 1.37321 1.3648 1.3648 1.35643 1.35643 1.34809 1.34809 1.33979 1.33979 1.33152 1.33152 1.32328 1.32328 1.31508 1.31508 1.30691 1.30691 1.29878 1.29878 1.29067 1.29067 1.28261 1.28261 1.27457 1.27457 1.26657 1.26657 1.2586 1.2586 1.25066 1.25066 1.24276 1.24276 1.23488 1.23488 1.22704 1.22704 1.21923 1.21923 1.21146 1.21146 1.20371 1.20371 1.196 1.196 1.18831 1.18831 1.18066 1.18066 1.17304 1.17304 1.16545 1.16545 1.15789 1.15789 1.15036 1.15036 1.14286 1.14286 1.13539 1.13539 1.12795 1.12795 1.12054 1.12054 1.11316 1.11316 1.10581 1.10581 1.09849 1.09849 1.09119 1.09119 1.08393 1.08393 1.0767 1.0767 1.06949 1.06949 1.06231 1.06231 1.05517 1.05517 1.04805 1.04805 1.04095 1.04095 1.03389 1.03389 1.02686 1.02686 1.01985 1.01985 1.01287 1.01287 1.00592 1.00592 0.99899 0.99899 0.992092 0.992092 0.985221 0.985221 0.978378 0.978378 0.971561 0.971561 0.96477 0.96477 0.958007 0.958007 0.95127 0.95127 0.944559 0.944559 0.937874 0.937874 0.931216 0.931216 0.924584 0.924584 0.917977 0.917977 0.911396 0.911396 0.904841 0.904841 0.898311 0.898311 0.891807 0.891807 0.885327 0.885327 0.878873 0.878873 0.872444 0.872444 0.86604 0.86604 0.85966 0.85966 0.853306 0.853306 0.846975 0.846975 0.840669 0.840669 0.834388 0.834388 0.82813 0.82813 0.821897 0.821897 0.815687 0.815687 0.809502 0.809502 0.80334 0.80334 0.797202 0.797202 0.791087 0.791087 0.784995 0.784995 0.778927 0.778927 0.772882 0.772882 0.76686 0.76686 0.760861 0.760861 0.754885 0.754885 0.748932 0.748932 0.743001 0.743001 0.737093 0.737093 0.731207 0.731207 0.725344 0.725344 0.719503 0.719503 0.713683 0.713683 0.707886 0.707886 0.702111 0.702111 0.696358 0.696358 0.690626 0.690626 0.684916 0.684916 0.679227 0.679227 0.67356 0.67356 0.667914 0.667914 0.66229 0.66229 0.656686 0.656686 0.651104 0.651104 0.645542 0.645542 0.640001 0.640001 0.634481 0.634481 0.628982 0.628982 0.623503 0.623503 0.618044 0.618044 0.612606 0.612606 0.607189 0.607189 0.601791 0.601791 0.596413 0.596413 0.591056 0.591056 0.585718 0.585718 0.5804 0.5804 0.575102 0.575102 0.569824 0.569824 0.564565 0.564565 0.559325 0.559325 0.554105 0.554105 0.548904 0.548904 0.543723 0.543723 0.53856 0.53856 0.533417 0.533417 0.528292 0.528292 0.523186 0.523186 0.518099 0.518099 0.513031 0.513031 0.507981 0.507981 0.50295 0.50295 0.497938 0.497938 0.492943 0.492943 0.487967 0.487967 0.483009 0.483009 0.47807 0.47807 0.473148 0.473148 0.468244 0.468244 0.463358 0.463358 0.45849 0.45849 0.45364 0.45364 0.448807 0.448807 0.443992 0.443992 0.439194 0.439194 0.434414 0.434414 0.429651 0.429651 0.424905 0.424905 0.420177 0.420177 0.415465 0.415465 0.410771 0.410771 0.406094 0.406094 0.401433 0.401433 0.396789 0.396789 0.392163 0.392163 0.387552 0.387552 0.382959 0.382959 0.378381 0.378381 0.373821 0.373821 0.369276 0.369276 0.364748 0.364748 0.360237 0.360237 0.355741 0.355741 0.351261 0.351261 0.346798 0.346798 0.34235 0.34235 0.337919 0.337919 0.333503 0.333503 0.329103 0.329103 0.324719 0.324719 0.32035 0.32035 0.315997 0.315997 0.311659 0.311659 0.307337 0.307337 0.30303 0.30303 0.298738 0.298738 0.294462 0.294462 0.290201 0.290201 0.285955 0.285955 0.281724 0.281724 0.277508 0.277508 0.273306 0.273306 0.26912 0.26912 0.264949 0.264949 0.260792 0.260792 0.25665 0.25665 0.252522 0.252522 0.248409 0.248409 0.24431 0.24431 0.240226 0.240226 0.236157 0.236157 0.232101 0.232101 0.22806 0.22806 0.224033 0.224033 0.22002 0.22002 0.216021 0.216021 0.212036 0.212036 0.208065 0.208065 0.204108 0.204108 0.200165 0.200165 0.196236 0.196236 0.19232 0.19232 0.188418 0.188418 0.184529 0.184529 0.180654 0.180654 0.176793 0.176793 0.172945 0.172945 0.16911 0.16911 0.165289 0.165289 0.161481 0.161481 0.157686 0.157686 0.153904 0.153904 0.150136 0.150136 0.14638 0.14638 0.142638 0.142638 0.138908 0.138908 0.135191 0.135191 0.131488 0.131488 0.127796 0.127796 0.124118 0.124118 0.120452 0.120452 0.116799 0.116799 0.113159 0.113159 0.109531 0.109531 0.105916 0.105916 0.102313 0.102313 0.098722 0.098722 0.0951438 0.0951438 0.0915777 0.0915777 0.0880239 0.0880239 0.0844823 0.0844823 0.0809528 0.0809528 0.0774354 0.0774354 0.07393 0.07393 0.0704366 0.0704366 0.0669552 0.0669552 0.0634856 0.0634856 0.0600279 0.0600279 0.056582 0.056582 0.0531478 0.0531478 0.0497253 0.0497253 0.0463144 0.0463144 0.0429152 0.0429152 0.0395275 0.0395275 0.0361514 0.0361514 0.0327867 0.0327867 0.0294334 0.0294334 0.0260915 0.0260915 0.022761 0.022761 0.0194417 0.0194417 0.0161337 0.0161337 0.0128368 0.0128368 0.00955115 0.00955115 0.00627658 0.00627658 0.00301307 0.00301307 -0.000239412 -0.000239412 -0.00348092 -0.00348092 -0.00671149 -0.00671149 -0.00993116 -0.00993116 -0.01314 -0.01314 -0.016338 -0.016338 -0.0195253 -0.0195253 -0.0227018 -0.0227018 -0.0258676 -0.0258676 -0.0290229 -0.0290229 -0.0321675 -0.0321675 -0.0353015 -0.0353015 -0.0384251 -0.0384251 -0.0415381 -0.0415381 -0.0446408 -0.0446408 -0.047733 -0.047733 -0.0508149 -0.0508149 -0.0538865 -0.0538865 -0.0569478 -0.0569478 -0.0599989 -0.0599989 -0.0630398 -0.0630398 -0.0660705 -0.0660705 -0.0690911 -0.0690911 -0.0721017 -0.0721017 -0.0751022 -0.0751022 -0.0780927 -0.0780927 -0.0810732 -0.0810732 -0.0840439 -0.0840439 -0.0870046 -0.0870046 -0.0899555 -0.0899555 -0.0928966 -0.0928966 -0.095828 -0.095828 -0.0987495 -0.0987495 -0.101661 -0.101661 -0.104564 -0.104564 -0.107456 -0.107456 -0.110339 -0.110339 -0.113213 -0.113213 -0.116077 -0.116077 -0.118931 -0.118931 -0.121776 -0.121776 -0.124612 -0.124612 -0.127438 -0.127438 -0.130255 -0.130255 -0.133063 -0.133063 -0.135862 -0.135862 -0.138651 -0.138651 -0.141431 -0.141431 -0.144202 -0.144202 -0.146963 -0.146963 -0.149716 -0.149716 -0.15246 -0.15246 -0.155194 -0.155194 -0.15792 -0.15792 -0.160636 -0.160636 -0.163344 -0.163344 -0.166043 -0.166043 -0.168733 -0.168733 -0.171414 -0.171414 -0.174086 -0.174086 -0.17675 -0.17675 -0.179405 -0.179405 -0.182051 -0.182051 -0.184689 -0.184689 -0.187318 -0.187318 -0.189938 -0.189938 -0.19255 -0.19255 -0.195153 -0.195153 -0.197748 -0.197748 -0.200334 -0.200334 -0.202912 -0.202912 -0.205482 -0.205482 -0.208043 -0.208043 -0.210596 -0.210596 -0.21314 -0.21314 -0.215677 -0.215677 -0.218205 -0.218205 -0.220724 -0.220724 -0.223236 -0.223236 -0.225739 -0.225739 -0.228235 -0.228235 -0.230722 -0.230722 -0.233201 -0.233201 -0.235672 -0.235672 -0.238135 -0.238135 -0.24059 -0.24059 -0.243038 -0.243038 -0.245477 -0.245477 -0.247908 -0.247908 -0.250332 -0.250332 -0.252748 -0.252748 -0.255155 -0.255155 -0.257556 -0.257556 -0.259948 -0.259948 -0.262333 -0.262333 -0.26471 -0.26471 -0.267079 -0.267079 -0.269441 -0.269441 -0.271795 -0.271795 -0.274141 -0.274141 -0.27648 -0.27648 -0.278812 -0.278812 -0.281136 -0.281136 -0.283452 -0.283452 -0.285761 -0.285761 -0.288063 -0.288063 -0.290357 -0.290357 -0.292644 -0.292644 -0.294923 -0.294923 -0.297196 -0.297196 -0.299461 -0.299461 -0.301718 -0.301718 -0.303969 -0.303969 -0.306212 -0.306212 -0.308448 -0.308448 -0.310677 -0.310677 -0.312899 -0.312899 -0.315113 -0.315113 -0.317321 -0.317321 -0.319522 -0.319522 -0.321715 -0.321715 -0.323902 -0.323902 -0.326081 -0.326081 -0.328254 -0.328254 -0.33042 -0.33042 -0.332579 -0.332579 -0.334731 -0.334731 -0.336876 -0.336876 -0.339014 -0.339014 -0.341145 -0.341145 -0.34327 -0.34327 -0.345388 -0.345388 -0.347499 -0.347499 -0.349604 -0.349604 -0.351701 -0.351701 -0.353793 -0.353793 -0.355877 -0.355877 -0.357955 -0.357955 -0.360026 -0.360026 -0.362091 -0.362091 -0.364149 -0.364149 -0.366201 -0.366201 -0.368246 -0.368246 -0.370285 -0.370285 -0.372317 -0.372317 -0.374343 -0.374343 -0.376362 -0.376362 -0.378375 -0.378375 -0.380382 -0.380382 -0.382382 -0.382382 -0.384376 -0.384376 -0.386364 -0.386364 -0.388346 -0.388346 -0.390321 -0.390321 -0.39229 -0.39229 -0.394253 -0.394253 -0.396209 -0.396209 -0.39816 -0.39816 -0.400104 -0.400104 -0.402042 -0.402042 -0.403974 -0.403974 -0.4059 -0.4059 -0.40782 -0.40782 -0.409734 -0.409734 -0.411642 -0.411642 -0.413544 -0.413544 -0.41544 -0.41544 -0.417329 -0.417329 -0.419213 -0.419213 -0.421092 -0.421092 -0.422964 -0.422964 -0.42483 -0.42483 -0.426691 -0.426691 -0.428545 -0.428545 -0.430394 -0.430394 -0.432237 -0.432237 -0.434074 -0.434074 -0.435906 -0.435906 -0.437732 -0.437732 -0.439552 -0.439552 -0.441366 -0.441366 -0.443175 -0.443175 -0.444978 -0.444978 -0.446775 -0.446775 -0.448567 -0.448567 -0.450353 -0.450353 -0.452134 -0.452134 -0.453909 -0.453909 -0.455678 -0.455678 -0.457442 -0.457442 -0.459201 -0.459201 -0.460954 -0.460954 -0.462701 -0.462701 -0.464444 -0.464444 -0.46618 -0.46618 -0.467911 -0.467911 -0.469637 -0.469637 -0.471358 -0.471358 -0.473073 -0.473073 -0.474783 -0.474783 -0.476487 -0.476487 -0.478186 -0.478186 -0.47988 -0.47988 -0.481569 -0.481569 -0.483252 -0.483252 -0.484931 -0.484931 -0.486603 -0.486603 -0.488271 -0.488271 -0.489934 -0.489934 -0.491591 -0.491591 -0.493243 -0.493243 -0.494891 -0.494891 -0.496533 -0.496533 -0.49817 -0.49817 -0.499801 -0.499801 -0.501428 -0.501428 -0.50305 -0.50305 -0.504667 -0.504667 -0.506278 -0.506278 -0.507885 -0.507885 -0.509487 -0.509487 -0.511084 -0.511084 -0.512676 -0.512676 -0.514263 -0.514263 -0.515845 -0.515845 -0.517422 -0.517422 -0.518994 -0.518994 -0.520561 -0.520561 -0.522124 -0.522124 -0.523682 -0.523682 -0.525235 -0.525235 -0.526783 -0.526783 -0.528326 -0.528326 -0.529865 -0.529865 -0.531399 -0.531399 -0.532928 -0.532928 -0.534452 -0.534452 -0.535972 -0.535972 -0.537487 -0.537487 -0.538997 -0.538997 -0.540503 -0.540503 -0.542004 -0.542004 -0.5435 -0.5435 -0.544992 -0.544992 -0.546479 -0.546479 -0.547962 -0.547962 -0.54944 -0.54944 -0.550913 -0.550913 -0.552382 -0.552382 -0.553847 -0.553847 -0.555307 -0.555307 -0.556762 -0.556762 -0.558213 -0.558213 -0.55966 -0.55966 -0.561102 -0.561102 -0.56254 -0.56254 -0.563973 -0.563973 -0.565402 -0.565402 -0.566826 -0.566826 -0.568246 -0.568246 -0.569662 -0.569662 -0.571073