# vtk DataFile Version 3.0
#This file was generated by the deal.II library on 2020/9/6 at 3:10:16
ASCII
DATASET UNSTRUCTURED_GRID

POINTS 4096 double
1.5 0 0
1.59692 0 0
1.59692 0 0
1.69385 0 0
1.69385 0 0
1.79077 0 0
1.79077 0 0
1.8877 0 0
1.8877 0 0
1.98462 0 0
1.98462 0 0
2.08154 0 0
2.08154 0 0
2.17847 0 0
2.17847 0 0
2.27539 0 0
2.27539 0 0
2.37231 0 0
2.37231 0 0
2.46924 0 0
2.46924 0 0
2.56616 0 0
2.56616 0 0
2.66309 0 0
2.66309 0 0
2.76001 0 0
2.76001 0 0
2.85693 0 0
2.85693 0 0
2.95386 0 0
2.95386 0 0
3.05078 0 0
3.05078 0 0
3.14771 0 0
3.14771 0 0
3.24463 0 0
3.24463 0 0
3.34155 0 0
3.34155 0 0
3.43848 0 0
3.43848 0 0
3.5354 0 0
3.5354 0 0
3.63232 0 0
3.63232 0 0
3.72925 0 0
3.72925 0 0
3.82617 0 0
3.82617 0 0
3.9231 0 0
3.9231 0 0
4.02002 0 0
4.02002 0 0
4.11694 0 0
4.11694 0 0
4.21387 0 0
4.21387 0 0
4.31079 0 0
4.31079 0 0
4.40771 0 0
4.40771 0 0
4.50464 0 0
4.50464 0 0
4.60156 0 0
4.60156 0 0
4.69849 0 0
4.69849 0 0
4.79541 0 0
4.79541 0 0
4.89233 0 0
4.89233 0 0
4.98926 0 0
4.98926 0 0
5.08618 0 0
5.08618 0 0
5.18311 0 0
5.18311 0 0
5.28003 0 0
5.28003 0 0
5.37695 0 0
5.37695 0 0
5.47388 0 0
5.47388 0 0
5.5708 0 0
5.5708 0 0
5.66772 0 0
5.66772 0 0
5.76465 0 0
5.76465 0 0
5.86157 0 0
5.86157 0 0
5.9585 0 0
5.9585 0 0
6.05542 0 0
6.05542 0 0
6.15234 0 0
6.15234 0 0
6.24927 0 0
6.24927 0 0
6.34619 0 0
6.34619 0 0
6.44312 0 0
6.44312 0 0
6.54004 0 0
6.54004 0 0
6.63696 0 0
6.63696 0 0
6.73389 0 0
6.73389 0 0
6.83081 0 0
6.83081 0 0
6.92773 0 0
6.92773 0 0
7.02466 0 0
7.02466 0 0
7.12158 0 0
7.12158 0 0
7.21851 0 0
7.21851 0 0
7.31543 0 0
7.31543 0 0
7.41235 0 0
7.41235 0 0
7.50928 0 0
7.50928 0 0
7.6062 0 0
7.6062 0 0
7.70312 0 0
7.70312 0 0
7.80005 0 0
7.80005 0 0
7.89697 0 0
7.89697 0 0
7.9939 0 0
7.9939 0 0
8.09082 0 0
8.09082 0 0
8.18774 0 0
8.18774 0 0
8.28467 0 0
8.28467 0 0
8.38159 0 0
8.38159 0 0
8.47852 0 0
8.47852 0 0
8.57544 0 0
8.57544 0 0
8.67236 0 0
8.67236 0 0
8.76929 0 0
8.76929 0 0
8.86621 0 0
8.86621 0 0
8.96313 0 0
8.96313 0 0
9.06006 0 0
9.06006 0 0
9.15698 0 0
9.15698 0 0
9.25391 0 0
9.25391 0 0
9.35083 0 0
9.35083 0 0
9.44775 0 0
9.44775 0 0
9.54468 0 0
9.54468 0 0
9.6416 0 0
9.6416 0 0
9.73853 0 0
9.73853 0 0
9.83545 0 0
9.83545 0 0
9.93237 0 0
9.93237 0 0
10.0293 0 0
10.0293 0 0
10.1262 0 0
10.1262 0 0
10.2231 0 0
10.2231 0 0
10.3201 0 0
10.3201 0 0
10.417 0 0
10.417 0 0
10.5139 0 0
10.5139 0 0
10.6108 0 0
10.6108 0 0
10.7078 0 0
10.7078 0 0
10.8047 0 0
10.8047 0 0
10.9016 0 0
10.9016 0 0
10.9985 0 0
10.9985 0 0
11.0955 0 0
11.0955 0 0
11.1924 0 0
11.1924 0 0
11.2893 0 0
11.2893 0 0
11.3862 0 0
11.3862 0 0
11.4832 0 0
11.4832 0 0
11.5801 0 0
11.5801 0 0
11.677 0 0
11.677 0 0
11.7739 0 0
11.7739 0 0
11.8708 0 0
11.8708 0 0
11.9678 0 0
11.9678 0 0
12.0647 0 0
12.0647 0 0
12.1616 0 0
12.1616 0 0
12.2585 0 0
12.2585 0 0
12.3555 0 0
12.3555 0 0
12.4524 0 0
12.4524 0 0
12.5493 0 0
12.5493 0 0
12.6462 0 0
12.6462 0 0
12.7432 0 0
12.7432 0 0
12.8401 0 0
12.8401 0 0
12.937 0 0
12.937 0 0
13.0339 0 0
13.0339 0 0
13.1309 0 0
13.1309 0 0
13.2278 0 0
13.2278 0 0
13.3247 0 0
13.3247 0 0
13.4216 0 0
13.4216 0 0
13.5186 0 0
13.5186 0 0
13.6155 0 0
13.6155 0 0
13.7124 0 0
13.7124 0 0
13.8093 0 0
13.8093 0 0
13.9062 0 0
13.9062 0 0
14.0032 0 0
14.0032 0 0
14.1001 0 0
14.1001 0 0
14.197 0 0
14.197 0 0
14.2939 0 0
14.2939 0 0
14.3909 0 0
14.3909 0 0
14.4878 0 0
14.4878 0 0
14.5847 0 0
14.5847 0 0
14.6816 0 0
14.6816 0 0
14.7786 0 0
14.7786 0 0
14.8755 0 0
14.8755 0 0
14.9724 0 0
14.9724 0 0
15.0693 0 0
15.0693 0 0
15.1663 0 0
15.1663 0 0
15.2632 0 0
15.2632 0 0
15.3601 0 0
15.3601 0 0
15.457 0 0
15.457 0 0
15.554 0 0
15.554 0 0
15.6509 0 0
15.6509 0 0
15.7478 0 0
15.7478 0 0
15.8447 0 0
15.8447 0 0
15.9417 0 0
15.9417 0 0
16.0386 0 0
16.0386 0 0
16.1355 0 0
16.1355 0 0
16.2324 0 0
16.2324 0 0
16.3293 0 0
16.3293 0 0
16.4263 0 0
16.4263 0 0
16.5232 0 0
16.5232 0 0
16.6201 0 0
16.6201 0 0
16.717 0 0
16.717 0 0
16.814 0 0
16.814 0 0
16.9109 0 0
16.9109 0 0
17.0078 0 0
17.0078 0 0
17.1047 0 0
17.1047 0 0
17.2017 0 0
17.2017 0 0
17.2986 0 0
17.2986 0 0
17.3955 0 0
17.3955 0 0
17.4924 0 0
17.4924 0 0
17.5894 0 0
17.5894 0 0
17.6863 0 0
17.6863 0 0
17.7832 0 0
17.7832 0 0
17.8801 0 0
17.8801 0 0
17.9771 0 0
17.9771 0 0
18.074 0 0
18.074 0 0
18.1709 0 0
18.1709 0 0
18.2678 0 0
18.2678 0 0
18.3647 0 0
18.3647 0 0
18.4617 0 0
18.4617 0 0
18.5586 0 0
18.5586 0 0
18.6555 0 0
18.6555 0 0
18.7524 0 0
18.7524 0 0
18.8494 0 0
18.8494 0 0
18.9463 0 0
18.9463 0 0
19.0432 0 0
19.0432 0 0
19.1401 0 0
19.1401 0 0
19.2371 0 0
19.2371 0 0
19.334 0 0
19.334 0 0
19.4309 0 0
19.4309 0 0
19.5278 0 0
19.5278 0 0
19.6248 0 0
19.6248 0 0
19.7217 0 0
19.7217 0 0
19.8186 0 0
19.8186 0 0
19.9155 0 0
19.9155 0 0
20.0125 0 0
20.0125 0 0
20.1094 0 0
20.1094 0 0
20.2063 0 0
20.2063 0 0
20.3032 0 0
20.3032 0 0
20.4001 0 0
20.4001 0 0
20.4971 0 0
20.4971 0 0
20.594 0 0
20.594 0 0
20.6909 0 0
20.6909 0 0
20.7878 0 0
20.7878 0 0
20.8848 0 0
20.8848 0 0
20.9817 0 0
20.9817 0 0
21.0786 0 0
21.0786 0 0
21.1755 0 0
21.1755 0 0
21.2725 0 0
21.2725 0 0
21.3694 0 0
21.3694 0 0
21.4663 0 0
21.4663 0 0
21.5632 0 0
21.5632 0 0
21.6602 0 0
21.6602 0 0
21.7571 0 0
21.7571 0 0
21.854 0 0
21.854 0 0
21.9509 0 0
21.9509 0 0
22.0479 0 0
22.0479 0 0
22.1448 0 0
22.1448 0 0
22.2417 0 0
22.2417 0 0
22.3386 0 0
22.3386 0 0
22.4355 0 0
22.4355 0 0
22.5325 0 0
22.5325 0 0
22.6294 0 0
22.6294 0 0
22.7263 0 0
22.7263 0 0
22.8232 0 0
22.8232 0 0
22.9202 0 0
22.9202 0 0
23.0171 0 0
23.0171 0 0
23.114 0 0
23.114 0 0
23.2109 0 0
23.2109 0 0
23.3079 0 0
23.3079 0 0
23.4048 0 0
23.4048 0 0
23.5017 0 0
23.5017 0 0
23.5986 0 0
23.5986 0 0
23.6956 0 0
23.6956 0 0
23.7925 0 0
23.7925 0 0
23.8894 0 0
23.8894 0 0
23.9863 0 0
23.9863 0 0
24.0833 0 0
24.0833 0 0
24.1802 0 0
24.1802 0 0
24.2771 0 0
24.2771 0 0
24.374 0 0
24.374 0 0
24.4709 0 0
24.4709 0 0
24.5679 0 0
24.5679 0 0
24.6648 0 0
24.6648 0 0
24.7617 0 0
24.7617 0 0
24.8586 0 0
24.8586 0 0
24.9556 0 0
24.9556 0 0
25.0525 0 0
25.0525 0 0
25.1494 0 0
25.1494 0 0
25.2463 0 0
25.2463 0 0
25.3433 0 0
25.3433 0 0
25.4402 0 0
25.4402 0 0
25.5371 0 0
25.5371 0 0
25.634 0 0
25.634 0 0
25.731 0 0
25.731 0 0
25.8279 0 0
25.8279 0 0
25.9248 0 0
25.9248 0 0
26.0217 0 0
26.0217 0 0
26.1187 0 0
26.1187 0 0
26.2156 0 0
26.2156 0 0
26.3125 0 0
26.3125 0 0
26.4094 0 0
26.4094 0 0
26.5063 0 0
26.5063 0 0
26.6033 0 0
26.6033 0 0
26.7002 0 0
26.7002 0 0
26.7971 0 0
26.7971 0 0
26.894 0 0
26.894 0 0
26.991 0 0
26.991 0 0
27.0879 0 0
27.0879 0 0
27.1848 0 0
27.1848 0 0
27.2817 0 0
27.2817 0 0
27.3787 0 0
27.3787 0 0
27.4756 0 0
27.4756 0 0
27.5725 0 0
27.5725 0 0
27.6694 0 0
27.6694 0 0
27.7664 0 0
27.7664 0 0
27.8633 0 0
27.8633 0 0
27.9602 0 0
27.9602 0 0
28.0571 0 0
28.0571 0 0
28.1541 0 0
28.1541 0 0
28.251 0 0
28.251 0 0
28.3479 0 0
28.3479 0 0
28.4448 0 0
28.4448 0 0
28.5417 0 0
28.5417 0 0
28.6387 0 0
28.6387 0 0
28.7356 0 0
28.7356 0 0
28.8325 0 0
28.8325 0 0
28.9294 0 0
28.9294 0 0
29.0264 0 0
29.0264 0 0
29.1233 0 0
29.1233 0 0
29.2202 0 0
29.2202 0 0
29.3171 0 0
29.3171 0 0
29.4141 0 0
29.4141 0 0
29.511 0 0
29.511 0 0
29.6079 0 0
29.6079 0 0
29.7048 0 0
29.7048 0 0
29.8018 0 0
29.8018 0 0
29.8987 0 0
29.8987 0 0
29.9956 0 0
29.9956 0 0
30.0925 0 0
30.0925 0 0
30.1895 0 0
30.1895 0 0
30.2864 0 0
30.2864 0 0
30.3833 0 0
30.3833 0 0
30.4802 0 0
30.4802 0 0
30.5771 0 0
30.5771 0 0
30.6741 0 0
30.6741 0 0
30.771 0 0
30.771 0 0
30.8679 0 0
30.8679 0 0
30.9648 0 0
30.9648 0 0
31.0618 0 0
31.0618 0 0
31.1587 0 0
31.1587 0 0
31.2556 0 0
31.2556 0 0
31.3525 0 0
31.3525 0 0
31.4495 0 0
31.4495 0 0
31.5464 0 0
31.5464 0 0
31.6433 0 0
31.6433 0 0
31.7402 0 0
31.7402 0 0
31.8372 0 0
31.8372 0 0
31.9341 0 0
31.9341 0 0
32.031 0 0
32.031 0 0
32.1279 0 0
32.1279 0 0
32.2249 0 0
32.2249 0 0
32.3218 0 0
32.3218 0 0
32.4187 0 0
32.4187 0 0
32.5156 0 0
32.5156 0 0
32.6125 0 0
32.6125 0 0
32.7095 0 0
32.7095 0 0
32.8064 0 0
32.8064 0 0
32.9033 0 0
32.9033 0 0
33.0002 0 0
33.0002 0 0
33.0972 0 0
33.0972 0 0
33.1941 0 0
33.1941 0 0
33.291 0 0
33.291 0 0
33.3879 0 0
33.3879 0 0
33.4849 0 0
33.4849 0 0
33.5818 0 0
33.5818 0 0
33.6787 0 0
33.6787 0 0
33.7756 0 0
33.7756 0 0
33.8726 0 0
33.8726 0 0
33.9695 0 0
33.9695 0 0
34.0664 0 0
34.0664 0 0
34.1633 0 0
34.1633 0 0
34.2603 0 0
34.2603 0 0
34.3572 0 0
34.3572 0 0
34.4541 0 0
34.4541 0 0
34.551 0 0
34.551 0 0
34.6479 0 0
34.6479 0 0
34.7449 0 0
34.7449 0 0
34.8418 0 0
34.8418 0 0
34.9387 0 0
34.9387 0 0
35.0356 0 0
35.0356 0 0
35.1326 0 0
35.1326 0 0
35.2295 0 0
35.2295 0 0
35.3264 0 0
35.3264 0 0
35.4233 0 0
35.4233 0 0
35.5203 0 0
35.5203 0 0
35.6172 0 0
35.6172 0 0
35.7141 0 0
35.7141 0 0
35.811 0 0
35.811 0 0
35.908 0 0
35.908 0 0
36.0049 0 0
36.0049 0 0
36.1018 0 0
36.1018 0 0
36.1987 0 0
36.1987 0 0
36.2957 0 0
36.2957 0 0
36.3926 0 0
36.3926 0 0
36.4895 0 0
36.4895 0 0
36.5864 0 0
36.5864 0 0
36.6833 0 0
36.6833 0 0
36.7803 0 0
36.7803 0 0
36.8772 0 0
36.8772 0 0
36.9741 0 0
36.9741 0 0
37.071 0 0
37.071 0 0
37.168 0 0
37.168 0 0
37.2649 0 0
37.2649 0 0
37.3618 0 0
37.3618 0 0
37.4587 0 0
37.4587 0 0
37.5557 0 0
37.5557 0 0
37.6526 0 0
37.6526 0 0
37.7495 0 0
37.7495 0 0
37.8464 0 0
37.8464 0 0
37.9434 0 0
37.9434 0 0
38.0403 0 0
38.0403 0 0
38.1372 0 0
38.1372 0 0
38.2341 0 0
38.2341 0 0
38.3311 0 0
38.3311 0 0
38.428 0 0
38.428 0 0
38.5249 0 0
38.5249 0 0
38.6218 0 0
38.6218 0 0
38.7188 0 0
38.7188 0 0
38.8157 0 0
38.8157 0 0
38.9126 0 0
38.9126 0 0
39.0095 0 0
39.0095 0 0
39.1064 0 0
39.1064 0 0
39.2034 0 0
39.2034 0 0
39.3003 0 0
39.3003 0 0
39.3972 0 0
39.3972 0 0
39.4941 0 0
39.4941 0 0
39.5911 0 0
39.5911 0 0
39.688 0 0
39.688 0 0
39.7849 0 0
39.7849 0 0
39.8818 0 0
39.8818 0 0
39.9788 0 0
39.9788 0 0
40.0757 0 0
40.0757 0 0
40.1726 0 0
40.1726 0 0
40.2695 0 0
40.2695 0 0
40.3665 0 0
40.3665 0 0
40.4634 0 0
40.4634 0 0
40.5603 0 0
40.5603 0 0
40.6572 0 0
40.6572 0 0
40.7542 0 0
40.7542 0 0
40.8511 0 0
40.8511 0 0
40.948 0 0
40.948 0 0
41.0449 0 0
41.0449 0 0
41.1418 0 0
41.1418 0 0
41.2388 0 0
41.2388 0 0
41.3357 0 0
41.3357 0 0
41.4326 0 0
41.4326 0 0
41.5295 0 0
41.5295 0 0
[...]
POINT_DATA 4096
SCALARS solution_0 double 1
LOOKUP_TABLE default
3.2564e+13 3.18893e+13 3.18893e+13 3.13204e+13 3.13204e+13 3.08359e+13 3.08359e+13 3.04193e+13 3.04193e+13 3.00578e+13 3.00578e+13 2.97415e+13 2.97415e+13 2.94622e+13 2.94622e+13 2.92138e+13 2.92138e+13 2.89909e+13 2.89909e+13 2.87893e+13 2.87893e+13 2.86057e+13 2.86057e+13 2.84372e+13 2.84372e+13 2.82814e+13 2.82814e+13 2.81362e+13 2.81362e+13 2.80001e+13 2.80001e+13 2.78717e+13 2.78717e+13 2.77496e+13 2.77496e+13 2.76331e+13 2.76331e+13 2.75211e+13 2.75211e+13 2.7413e+13 2.7413e+13 2.73081e+13 2.73081e+13 2.72059e+13 2.72059e+13 2.71059e+13 2.71059e+13 2.70077e+13 2.70077e+13 2.6911e+13 2.6911e+13 2.68155e+13 2.68155e+13 2.6721e+13 2.6721e+13 2.66271e+13 2.66271e+13 2.65338e+13 2.65338e+13 2.64409e+13 2.64409e+13 2.63482e+13 2.63482e+13 2.62556e+13 2.62556e+13 2.6163e+13 2.6163e+13 2.60703e+13 2.60703e+13 2.59775e+13 2.59775e+13 2.58845e+13 2.58845e+13 2.57912e+13 2.57912e+13 2.56976e+13 2.56976e+13 2.56037e+13 2.56037e+13 2.55093e+13 2.55093e+13 2.54147e+13 2.54147e+13 2.53196e+13 2.53196e+13 2.5224e+13 2.5224e+13 2.51281e+13 2.51281e+13 2.50317e+13 2.50317e+13 2.4935e+13 2.4935e+13 2.48377e+13 2.48377e+13 2.47401e+13 2.47401e+13 2.4642e+13 2.4642e+13 2.45436e+13 2.45436e+13 2.44447e+13 2.44447e+13 2.43454e+13 2.43454e+13 2.42458e+13 2.42458e+13 2.41458e+13 2.41458e+13 2.40455e+13 2.40455e+13 2.39448e+13 2.39448e+13 2.38438e+13 2.38438e+13 2.37425e+13 2.37425e+13 2.36409e+13 2.36409e+13 2.3539e+13 2.3539e+13 2.34369e+13 2.34369e+13 2.33345e+13 2.33345e+13 2.32319e+13 2.32319e+13 2.31291e+13 2.31291e+13 2.30262e+13 2.30262e+13 2.2923e+13 2.2923e+13 2.28197e+13 2.28197e+13 2.27162e+13 2.27162e+13 2.26126e+13 2.26126e+13 2.25089e+13 2.25089e+13 2.24051e+13 2.24051e+13 2.23013e+13 2.23013e+13 2.21973e+13 2.21973e+13 2.20933e+13 2.20933e+13 2.19893e+13 2.19893e+13 2.18853e+13 2.18853e+13 2.17813e+13 2.17813e+13 2.16772e+13 2.16772e+13 2.15732e+13 2.15732e+13 2.14693e+13 2.14693e+13 2.13653e+13 2.13653e+13 2.12615e+13 2.12615e+13 2.11577e+13 2.11577e+13 2.1054e+13 2.1054e+13 2.09504e+13 2.09504e+13 2.08469e+13 2.08469e+13 2.07436e+13 2.07436e+13 2.06403e+13 2.06403e+13 2.05372e+13 2.05372e+13 2.04343e+13 2.04343e+13 2.03316e+13 2.03316e+13 2.0229e+13 2.0229e+13 2.01266e+13 2.01266e+13 2.00243e+13 2.00243e+13 1.99223e+13 1.99223e+13 1.98205e+13 1.98205e+13 1.9719e+13 1.9719e+13 1.96176e+13 1.96176e+13 1.95165e+13 1.95165e+13 1.94156e+13 1.94156e+13 1.9315e+13 1.9315e+13 1.92147e+13 1.92147e+13 1.91146e+13 1.91146e+13 1.90148e+13 1.90148e+13 1.89152e+13 1.89152e+13 1.8816e+13 1.8816e+13 1.8717e+13 1.8717e+13 1.86184e+13 1.86184e+13 1.852e+13 1.852e+13 1.8422e+13 1.8422e+13 1.83243e+13 1.83243e+13 1.82269e+13 1.82269e+13 1.81298e+13 1.81298e+13 1.8033e+13 1.8033e+13 1.79366e+13 1.79366e+13 1.78406e+13 1.78406e+13 1.77448e+13 1.77448e+13 1.76495e+13 1.76495e+13 1.75544e+13 1.75544e+13 1.74598e+13 1.74598e+13 1.73655e+13 1.73655e+13 1.72715e+13 1.72715e+13 1.71779e+13 1.71779e+13 1.70847e+13 1.70847e+13 1.69919e+13 1.69919e+13 1.68994e+13 1.68994e+13 1.68073e+13 1.68073e+13 1.67156e+13 1.67156e+13 1.66243e+13 1.66243e+13 1.65333e+13 1.65333e+13 1.64428e+13 1.64428e+13 1.63526e+13 1.63526e+13 1.62629e+13 1.62629e+13 1.61735e+13 1.61735e+13 1.60845e+13 1.60845e+13 1.59959e+13 1.59959e+13 1.59077e+13 1.59077e+13 1.58199e+13 1.58199e+13 1.57325e+13 1.57325e+13 1.56455e+13 1.56455e+13 1.5559e+13 1.5559e+13 1.54728e+13 1.54728e+13 1.5387e+13 1.5387e+13 1.53016e+13 1.53016e+13 1.52167e+13 1.52167e+13 1.51321e+13 1.51321e+13 1.5048e+13 1.5048e+13 1.49642e+13 1.49642e+13 1.48809e+13 1.48809e+13 1.4798e+13 1.4798e+13 1.47155e+13 1.47155e+13 1.46334e+13 1.46334e+13 1.45517e+13 1.45517e+13 1.44704e+13 1.44704e+13 1.43895e+13 1.43895e+13 1.43091e+13 1.43091e+13 1.4229e+13 1.4229e+13 1.41494e+13 1.41494e+13 1.40701e+13 1.40701e+13 1.39913e+13 1.39913e+13 1.39129e+13 1.39129e+13 1.38349e+13 1.38349e+13 1.37573e+13 1.37573e+13 1.36801e+13 1.36801e+13 1.36033e+13 1.36033e+13 1.35269e+13 1.35269e+13 1.34509e+13 1.34509e+13 1.33754e+13 1.33754e+13 1.33002e+13 1.33002e+13 1.32254e+13 1.32254e+13 1.31511e+13 1.31511e+13 1.30771e+13 1.30771e+13 1.30036e+13 1.30036e+13 1.29304e+13 1.29304e+13 1.28576e+13 1.28576e+13 1.27853e+13 1.27853e+13 1.27133e+13 1.27133e+13 1.26417e+13 1.26417e+13 1.25705e+13 1.25705e+13 1.24998e+13 1.24998e+13 1.24294e+13 1.24294e+13 1.23594e+13 1.23594e+13 1.22898e+13 1.22898e+13 1.22205e+13 1.22205e+13 1.21517e+13 1.21517e+13 1.20832e+13 1.20832e+13 1.20152e+13 1.20152e+13 1.19475e+13 1.19475e+13 1.18802e+13 1.18802e+13 1.18133e+13 1.18133e+13 1.17467e+13 1.17467e+13 1.16806e+13 1.16806e+13 1.16148e+13 1.16148e+13 1.15494e+13 1.15494e+13 1.14843e+13 1.14843e+13 1.14197e+13 1.14197e+13 1.13554e+13 1.13554e+13 1.12914e+13 1.12914e+13 1.12279e+13 1.12279e+13 1.11647e+13 1.11647e+13 1.11018e+13 1.11018e+13 1.10394e+13 1.10394e+13 1.09773e+13 1.09773e+13 1.09155e+13 1.09155e+13 1.08541e+13 1.08541e+13 1.07931e+13 1.07931e+13 1.07324e+13 1.07324e+13 1.06721e+13 1.06721e+13 1.06121e+13 1.06121e+13 1.05525e+13 1.05525e+13 1.04932e+13 1.04932e+13 1.04343e+13 1.04343e+13 1.03757e+13 1.03757e+13 1.03175e+13 1.03175e+13 1.02596e+13 1.02596e+13 1.0202e+13 1.0202e+13 1.01448e+13 1.01448e+13 1.00879e+13 1.00879e+13 1.00314e+13 1.00314e+13 9.97516e+12 9.97516e+12 9.91928e+12 9.91928e+12 9.86372e+12 9.86372e+12 9.8085e+12 9.8085e+12 9.7536e+12 9.7536e+12 9.69903e+12 9.69903e+12 9.64478e+12 9.64478e+12 9.59085e+12 9.59085e+12 9.53724e+12 9.53724e+12 9.48395e+12 9.48395e+12 9.43098e+12 9.43098e+12 9.37832e+12 9.37832e+12 9.32597e+12 9.32597e+12 9.27394e+12 9.27394e+12 9.22221e+12 9.22221e+12 9.17079e+12 9.17079e+12 9.11968e+12 9.11968e+12 9.06888e+12 9.06888e+12 9.01837e+12 9.01837e+12 8.96817e+12 8.96817e+12 8.91826e+12 8.91826e+12 8.86866e+12 8.86866e+12 8.81935e+12 8.81935e+12 8.77033e+12 8.77033e+12 8.72161e+12 8.72161e+12 8.67318e+12 8.67318e+12 8.62504e+12 8.62504e+12 8.57718e+12 8.57718e+12 8.52961e+12 8.52961e+12 8.48233e+12 8.48233e+12 8.43533e+12 8.43533e+12 8.3886e+12 8.3886e+12 8.34216e+12 8.34216e+12 8.296e+12 8.296e+12 8.25011e+12 8.25011e+12 8.2045e+12 8.2045e+12 8.15916e+12 8.15916e+12 8.11409e+12 8.11409e+12 8.06929e+12 8.06929e+12 8.02476e+12 8.02476e+12 7.9805e+12 7.9805e+12 7.9365e+12 7.9365e+12 7.89276e+12 7.89276e+12 7.84929e+12 7.84929e+12 7.80607e+12 7.80607e+12 7.76311e+12 7.76311e+12 7.72042e+12 7.72042e+12 7.67797e+12 7.67797e+12 7.63578e+12 7.63578e+12 7.59384e+12 7.59384e+12 7.55216e+12 7.55216e+12 7.51072e+12 7.51072e+12 7.46953e+12 7.46953e+12 7.42858e+12 7.42858e+12 7.38788e+12 7.38788e+12 7.34743e+12 7.34743e+12 7.30721e+12 7.30721e+12 7.26724e+12 7.26724e+12 7.2275e+12 7.2275e+12 7.188e+12 7.188e+12 7.14874e+12 7.14874e+12 7.10971e+12 7.10971e+12 7.07091e+12 7.07091e+12 7.03235e+12 7.03235e+12 6.99401e+12 6.99401e+12 6.9559e+12 6.9559e+12 6.91802e+12 6.91802e+12 6.88037e+12 6.88037e+12 6.84293e+12 6.84293e+12 6.80573e+12 6.80573e+12 6.76874e+12 6.76874e+12 6.73197e+12 6.73197e+12 6.69542e+12 6.69542e+12 6.65909e+12 6.65909e+12 6.62297e+12 6.62297e+12 6.58707e+12 6.58707e+12 6.55138e+12 6.55138e+12 6.5159e+12 6.5159e+12 6.48063e+12 6.48063e+12 6.44557e+12 6.44557e+12 6.41072e+12 6.41072e+12 6.37608e+12 6.37608e+12 6.34164e+12 6.34164e+12 6.3074e+12 6.3074e+12 6.27336e+12 6.27336e+12 6.23953e+12 6.23953e+12 6.20589e+12 6.20589e+12 6.17246e+12 6.17246e+12 6.13922e+12 6.13922e+12 6.10618e+12 6.10618e+12 6.07333e+12 6.07333e+12 6.04067e+12 6.04067e+12 6.00821e+12 6.00821e+12 5.97593e+12 5.97593e+12 5.94385e+12 5.94385e+12 5.91195e+12 5.91195e+12 5.88025e+12 5.88025e+12 5.84872e+12 5.84872e+12 5.81739e+12 5.81739e+12 5.78623e+12 5.78623e+12 5.75526e+12 5.75526e+12 5.72447e+12 5.72447e+12 5.69386e+12 5.69386e+12 5.66342e+12 5.66342e+12 5.63317e+12 5.63317e+12 5.60309e+12 5.60309e+12 5.57319e+12 5.57319e+12 5.54346e+12 5.54346e+12 5.5139e+12 5.5139e+12 5.48452e+12 5.48452e+12 5.4553e+12 5.4553e+12 5.42626e+12 5.42626e+12 5.39738e+12 5.39738e+12 5.36867e+12 5.36867e+12 5.34013e+12 5.34013e+12 5.31176e+12 5.31176e+12 5.28354e+12 5.28354e+12 5.25549e+12 5.25549e+12 5.2276e+12 5.2276e+12 5.19988e+12 5.19988e+12 5.17231e+12 5.17231e+12 5.1449e+12 5.1449e+12 5.11765e+12 5.11765e+12 5.09056e+12 5.09056e+12 5.06362e+12 5.06362e+12 5.03684e+12 5.03684e+12 5.01021e+12 5.01021e+12 4.98373e+12 4.98373e+12 4.9574e+12 4.9574e+12 4.93123e+12 4.93123e+12 4.9052e+12 4.9052e+12 4.87933e+12 4.87933e+12 4.8536e+12 4.8536e+12 4.82802e+12 4.82802e+12 4.80258e+12 4.80258e+12 4.77729e+12 4.77729e+12 4.75214e+12 4.75214e+12 4.72714e+12 4.72714e+12 4.70227e+12 4.70227e+12 4.67755e+12 4.67755e+12 4.65297e+12 4.65297e+12 4.62853e+12 4.62853e+12 4.60422e+12 4.60422e+12 4.58006e+12 4.58006e+12 4.55603e+12 4.55603e+12 4.53213e+12 4.53213e+12 4.50837e+12 4.50837e+12 4.48475e+12 4.48475e+12 4.46126e+12 4.46126e+12 4.4379e+12 4.4379e+12 4.41467e+12 4.41467e+12 4.39157e+12 4.39157e+12 4.3686e+12 4.3686e+12 4.34576e+12 4.34576e+12 4.32304e+12 4.32304e+12 4.30046e+12 4.30046e+12 4.278e+12 4.278e+12 4.25566e+12 4.25566e+12 4.23345e+12 4.23345e+12 4.21137e+12 4.21137e+12 4.1894e+12 4.1894e+12 4.16756e+12 4.16756e+12 4.14584e+12 4.14584e+12 4.12424e+12 4.12424e+12 4.10276e+12 4.10276e+12 4.0814e+12 4.0814e+12 4.06016e+12 4.06016e+12 4.03903e+12 4.03903e+12 4.01803e+12 4.01803e+12 3.99713e+12 3.99713e+12 3.97635e+12 3.97635e+12 3.95569e+12 3.95569e+12 3.93514e+12 3.93514e+12 3.9147e+12 3.9147e+12 3.89438e+12 3.89438e+12 3.87417e+12 3.87417e+12 3.85406e+12 3.85406e+12 3.83407e+12 3.83407e+12 3.81419e+12 3.81419e+12 3.79441e+12 3.79441e+12 3.77475e+12 3.77475e+12 3.75519e+12 3.75519e+12 3.73574e+12 3.73574e+12 3.71639e+12 3.71639e+12 3.69715e+12 3.69715e+12 3.67801e+12 3.67801e+12 3.65897e+12 3.65897e+12 3.64004e+12 3.64004e+12 3.62121e+12 3.62121e+12 3.60249e+12 3.60249e+12 3.58386e+12 3.58386e+12 3.56534e+12 3.56534e+12 3.54691e+12 3.54691e+12 3.52858e+12 3.52858e+12 3.51036e+12 3.51036e+12 3.49223e+12 3.49223e+12 3.47419e+12 3.47419e+12 3.45626e+12 3.45626e+12 3.43842e+12 3.43842e+12 3.42067e+12 3.42067e+12 3.40302e+12 3.40302e+12 3.38547e+12 3.38547e+12 3.36801e+12 3.36801e+12 3.35064e+12 3.35064e+12 3.33336e+12 3.33336e+12 3.31617e+12 3.31617e+12 3.29908e+12 3.29908e+12 3.28208e+12 3.28208e+12 3.26516e+12 3.26516e+12 3.24834e+12 3.24834e+12 3.23161e+12 3.23161e+12 3.21496e+12 3.21496e+12 3.1984e+12 3.1984e+12 3.18193e+12 3.18193e+12 3.16554e+12 3.16554e+12 3.14925e+12 3.14925e+12 3.13303e+12 3.13303e+12 3.1169e+12 3.1169e+12 3.10086e+12 3.10086e+12 3.0849e+12 3.0849e+12 3.06902e+12 3.06902e+12 3.05323e+12 3.05323e+12 3.03752e+12 3.03752e+12 3.02189e+12 3.02189e+12 3.00634e+12 3.00634e+12 2.99088e+12 2.99088e+12 2.97549e+12 2.97549e+12 2.96018e+12 2.96018e+12 2.94495e+12 2.94495e+12 2.92981e+12 2.92981e+12 2.91473e+12 2.91473e+12 2.89974e+12 2.89974e+12 2.88483e+12 2.88483e+12 2.86999e+12 2.86999e+12 2.85523e+12 2.85523e+12 2.84054e+12 2.84054e+12 2.82593e+12 2.82593e+12 2.81139e+12 2.81139e+12 2.79693e+12 2.79693e+12 2.78254e+12 2.78254e+12 2.76823e+12 2.76823e+12 2.75399e+12 2.75399e+12 2.73982e+12 2.73982e+12 2.72572e+12 2.72572e+12 2.7117e+12 2.7117e+12 2.69775e+12 2.69775e+12 2.68386e+12 2.68386e+12 2.67005e+12 2.67005e+12 2.65631e+12 2.65631e+12 2.64264e+12 2.64264e+12 2.62903e+12 2.62903e+12 2.6155e+12 2.6155e+12 2.60203e+12 2.60203e+12 2.58863e+12 2.58863e+12 2.5753e+12 2.5753e+12 2.56204e+12 2.56204e+12 2.54884e+12 2.54884e+12 2.53571e+12 2.53571e+12 2.52264e+12 2.52264e+12 2.50964e+12 2.50964e+12 2.49671e+12 2.49671e+12 2.48384e+12 2.48384e+12 2.47103e+12 2.47103e+12 2.45829e+12 2.45829e+12 2.44561e+12 2.44561e+12 2.43299e+12 2.43299e+12 2.42044e+12 2.42044e+12 2.40795e+12 2.40795e+12 2.39552e+12 2.39552e+12 2.38315e+12 2.38315e+12 2.37084e+12 2.37084e+12 2.3586e+12 2.3586e+12 2.34641e+12 2.34641e+12 2.33429e+12 2.33429e+12 2.32222e+12 2.32222e+12 2.31021e+12 2.31021e+12 2.29826e+12 2.29826e+12 2.28637e+12 2.28637e+12 2.27454e+12 2.27454e+12 2.26277e+12 2.26277e+12 2.25105e+12 2.25105e+12 2.2394e+12 2.2394e+12 2.22779e+12 2.22779e+12 2.21625e+12 2.21625e+12 2.20476e+12 2.20476e+12 2.19332e+12 2.19332e+12 2.18195e+12 2.18195e+12 2.17062e+12 2.17062e+12 2.15936e+12 2.15936e+12 2.14814e+12 2.14814e+12 2.13698e+12 2.13698e+12 2.12588e+12 2.12588e+12 2.11483e+12 2.11483e+12 2.10383e+12 2.10383e+12 2.09288e+12 2.09288e+12 2.08199e+12 2.08199e+12 2.07115e+12 2.07115e+12 2.06036e+12 2.06036e+12 2.04962e+12 2.04962e+12 2.03893e+12 2.03893e+12 2.0283e+12 2.0283e+12 2.01771e+12 2.01771e+12 2.00718e+12 2.00718e+12 1.9967e+12 1.9967e+12 1.98626e+12 1.98626e+12 1.97588e+12 1.97588e+12 1.96554e+12 1.96554e+12 1.95526e+12 1.95526e+12 1.94502e+12 1.94502e+12 1.93483e+12 1.93483e+12 1.92469e+12 1.92469e+12 1.91459e+12 1.91459e+12 1.90455e+12 1.90455e+12 1.89455e+12 1.89455e+12 1.8846e+12 1.8846e+12 1.87469e+12 1.87469e+12 1.86484e+12 1.86484e+12 1.85502e+12 1.85502e+12 1.84526e+12 1.84526e+12 1.83554e+12 1.83554e+12 1.82586e+12 1.82586e+12 1.81623e+12 1.81623e+12 1.80665e+12 1.80665e+12 1.79711e+12 1.79711e+12 1.78761e+12 1.78761e+12 1.77816e+12 1.77816e+12 1.76875e+12 1.76875e+12 1.75939e+12 1.75939e+12 1.75007e+12 1.75007e+12 1.74079e+12 1.74079e+12 1.73155e+12 1.73155e+12 1.72236e+12 1.72236e+12 1.71321e+12 1.71321e+12 1.7041e+12 1.7041e+12 1.69503e+12 1.69503e+12 1.68601e+12 1.68601e+12 1.67703e+12 1.67703e+12 1.66808e+12 1.66808e+12 1.65918e+12 1.65918e+12 1.65032e+12 1.65032e+12 1.6415e+12 1.6415e+12 1.63272e+12 1.63272e+12 1.62398e+12 1.62398e+12 1.61528e+12 1.61528e+12 1.60662e+12 1.60662e+12 1.598e+12 1.598e+12 1.58942e+12 1.58942e+12 1.58087e+12 1.58087e+12 1.57237e+12 1.57237e+12 1.5639e+12 1.5639e+12 1.55548e+12 1.55548e+12 1.54709e+12 1.54709e+12 1.53873e+12 1.53873e+12 1.53042e+12 1.53042e+12 1.52214e+12 1.52214e+12 1.5139e+12 1.5139e+12 1.5057e+12 1.5057e+12 1.49753e+12 1.49753e+12 1.4894e+12 1.4894e+12 1.48131e+12 1.48131e+12 1.47325e+12 1.47325e+12 1.46523e+12 1.46523e+12 1.45725e+12 1.45725e+12 1.4493e+12 1.4493e+12 1.44138e+12 1.44138e+12 1.4335e+12 1.4335e+12 1.42566e+12 1.42566e+12 1.41785e+12 1.41785e+12 1.41007e+12 1.41007e+12 1.40233e+12 1.40233e+12 1.39463e+12 1.39463e+12 1.38696e+12 1.38696e+12 1.37932e+12 1.37932e+12 1.37171e+12 1.37171e+12 1.36414e+12 1.36414e+12 1.3566e+12 1.3566e+12 1.3491e+12 1.3491e+12 1.34163e+12 1.34163e+12 1.33419e+12 1.33419e+12 1.32678e+12 1.32678e+12 1.31941e+12 1.31941e+12 1.31206e+12 1.31206e+12 1.30475e+12 1.30475e+12 1.29747e+12 1.29747e+12 1.29023e+12 1.29023e+12 1.28301e+12 1.28301e+12 1.27583e+12 1.27583e+12 1.26868e+12 1.26868e+12 1.26156e+12 1.26156e+12 1.25446e+12 1.25446e+12 1.2474e+12 1.2474e+12 1.24038e+12 1.24038e+12 1.23338e+12 1.23338e+12 1.22641e+12 1.22641e+12 1.21947e+12 1.21947e+12 1.21256e+12 1.21256e+12 1.20568e+12 1.20568e+12 1.19883e+12 1.19883e+12 1.19201e+12 1.19201e+12 1.18522e+12 1.18522e+12 1.17846e+12 1.17846e+12 1.17172e+12 1.17172e+12 1.16502e+12 1.16502e+12 1.15834e+12 1.15834e+12 1.1517e+12 1.1517e+12 1.14508e+12 1.14508e+12 1.13849e+12 1.13849e+12 1.13192e+12 1.13192e+12 1.12539e+12 1.12539e+12 1.11888e+12 1.11888e+12 1.1124e+12 1.1124e+12 1.10595e+12 1.10595e+12 1.09952e+12 1.09952e+12 1.09313e+12 1.09313e+12 1.08675e+12 1.08675e+12 1.08041e+12 1.08041e+12 1.07409e+12 1.07409e+12 1.0678e+12 1.0678e+12 1.06154e+12 1.06154e+12 1.0553e+12 1.0553e+12 1.04909e+12 1.04909e+12 1.0429e+12 1.0429e+12 1.03674e+12 1.03674e+12 1.03061e+12 1.03061e+12 1.0245e+12 1.0245e+12 1.01842e+12 1.01842e+12 1.01236e+12 1.01236e+12 1.00633e+12 1.00633e+12 1.00032e+12 1.00032e+12 9.94338e+11 9.94338e+11 9.8838e+11 9.8838e+11 9.82448e+11 9.82448e+11 9.7654e+11 9.7654e+11 9.70656e+11 9.70656e+11 9.64797e+11 9.64797e+11 9.58961e+11 9.58961e+11 9.5315e+11 9.5315e+11 9.47363e+11 9.47363e+11 9.416e+11 9.416e+11 9.35861e+11 9.35861e+11 9.30145e+11 9.30145e+11 9.24452e+11 9.24452e+11 9.18783e+11 9.18783e+11 9.13137e+11 9.13137e+11 9.07515e+11 9.07515e+11 9.01915e+11 9.01915e+11 8.96338e+11 8.96338e+11 8.90784e+11 8.90784e+11 8.85253e+11 8.85253e+11 8.79744e+11 8.79744e+11 8.74257e+11 8.74257e+11 8.68793e+11 8.68793e+11 8.63351e+11 8.63351e+11 8.57932e+11 8.57932e+11 8.52534e+11 8.52534e+11 8.47158e+11 8.47158e+11 8.41804e+11 8.41804e+11 8.36471e+11 8.36471e+11 8.3116e+11 8.3116e+11 8.25871e+11 8.25871e+11 8.20603e+11 8.20603e+11 8.15356e+11 8.15356e+11 8.1013e+11 8.1013e+11 8.04925e+11 8.04925e+11 7.99741e+11 7.99741e+11 7.94578e+11 7.94578e+11 7.89436e+11 7.89436e+11 7.84314e+11 7.84314e+11 7.79213e+11 7.79213e+11 7.74132e+11 7.74132e+11 7.69071e+11 7.69071e+11 7.64031e+11 7.64031e+11 7.59011e+11 7.59011e+11 7.54011e+11 7.54011e+11 7.4903e+11 7.4903e+11 7.4407e+11 7.4407e+11 7.39129e+11 7.39129e+11 7.34208e+11 7.34208e+11 7.29306e+11 7.29306e+11 7.24424e+11 7.24424e+11 7.19561e+11 7.19561e+11 7.14717e+11 7.14717e+11 7.09893e+11 7.09893e+11 7.05087e+11 7.05087e+11 7.003e+11 7.003e+11 6.95533e+11 6.95533e+11 6.90784e+11 6.90784e+11 6.86054e+11 6.86054e+11 6.81342e+11 6.81342e+11 6.76649e+11 6.76649e+11 6.71974e+11 6.71974e+11 6.67317e+11 6.67317e+11 6.62679e+11 6.62679e+11 6.58059e+11 6.58059e+11 6.53457e+11 6.53457e+11 6.48873e+11 6.48873e+11 6.44307e+11 6.44307e+11 6.39759e+11 6.39759e+11 6.35228e+11 6.35228e+11 6.30715e+11 6.30715e+11 6.2622e+11 6.2622e+11 6.21742e+11 6.21742e+11 6.17281e+11 6.17281e+11 6.12838e+11 6.12838e+11 6.08412e+11 6.08412e+11 6.04003e+11 6.04003e+11 5.99611e+11 5.99611e+11 5.95236e+11 5.95236e+11 5.90878e+11 5.90878e+11 5.86537e+11 5.86537e+11 5.82212e+11 5.82212e+11 5.77904e+11 5.77904e+11 5.73613e+11 5.73613e+11 5.69338e+11 5.69338e+11 5.6508e+11 5.6508e+11 5.60838e+11 5.60838e+11 5.56612e+11 5.56612e+11 5.52402e+11 5.52402e+11 5.48209e+11 5.48209e+11 5.44032e+11 5.44032e+11 5.3987e+11 5.3987e+11 5.35725e+11 5.35725e+11 5.31595e+11 5.31595e+11 5.27481e+11 5.27481e+11 5.23382e+11 5.23382e+11 5.193e+11 5.193e+11 5.15232e+11 5.15232e+11 5.11181e+11 5.11181e+11 5.07144e+11 5.07144e+11 5.03123e+11 5.03123e+11 4.99117e+11 4.99117e+11 4.95126e+11 4.95126e+11 4.91151e+11 4.91151e+11 4.8719e+11 4.8719e+11 4.83245e+11 4.83245e+11 4.79314e+11 4.79314e+11 4.75398e+11 4.75398e+11 4.71497e+11 4.71497e+11 4.6761e+11 4.6761e+11 4.63738e+11 4.63738e+11 4.59881e+11 4.59881e+11 4.56038e+11 4.56038e+11 4.5221e+11 4.5221e+11 4.48396e+11 4.48396e+11 4.44596e+11 4.44596e+11 4.4081e+11 4.4081e+11 4.37039e+11 4.37039e+11 4.33282e+11 4.33282e+11 4.29538e+11 4.29538e+11 4.25809e+11 4.25809e+11 4.22094e+11 4.22094e+11 4.18392e+11 4.18392e+11 4.14704e+11 4.14704e+11 4.1103e+11 4.1103e+11 4.0737e+11 4.0737e+11 4.03723e+11 4.03723e+11 4.00089e+11 4.00089e+11 3.96469e+11 3.96469e+11 3.92863e+11 3.92863e+11 3.8927e+11 3.8927e+11 3.8569e+11 3.8569e+11 3.82123e+11 3.82123e+11 3.7857e+11 3.7857e+11 3.7503e+11 3.7503e+11 3.71502e+11 3.71502e+11 3.67988e+11 3.67988e+11 3.64487e+11 3.64487e+11 3.60998e+11 3.60998e+11 3.57523e+11 3.57523e+11 3.5406e+11 3.5406e+11 3.50609e+11 3.50609e+11 3.47172e+11 3.47172e+11 3.43747e+11 3.43747e+11 3.40334e+11 3.40334e+11 3.36935e+11 3.36935e+11 3.33547e+11 3.33547e+11 3.30172e+11 3.30172e+11 3.26809e+11 3.26809e+11 3.23458e+11 3.23458e+11 3.2012e+11 3.2012e+11 3.16794e+11 3.16794e+11 3.1348e+11 3.1348e+11 3.10178e+11 3.10178e+11 3.06888e+11 3.06888e+11 3.0361e+11 3.0361e+11 3.00343e+11 3.00343e+11 2.97089e+11 2.97089e+11 2.93846e+11 2.93846e+11 2.90616e+11 2.90616e+11 2.87396e+11 2.87396e+11 2.84189e+11 2.84189e+11 2.80993e+11 2.80993e+11 2.77809e+11 2.77809e+11 2.74636e+11 2.74636e+11 2.71474e+11 2.71474e+11 2.68324e+11 2.68324e+11 2.65185e+11 2.65185e+11 2.62058e+11 2.62058e+11 2.58942e+11 2.58942e+11 2.55836e+11 2.55836e+11 2.52743e+11 2.52743e+11 2.4966e+11 2.4966e+11 2.46588e+11 2.46588e+11 2.43527e+11 2.43527e+11 2.40477e+11 2.40477e+11 2.37438e+11 2.37438e+11 2.3441e+11 2.3441e+11 2.31393e+11 2.31393e+11 2.28387e+11 2.28387e+11 2.25391e+11 2.25391e+11 2.22406e+11 2.22406e+11 2.19431e+11 2.19431e+11 2.16467e+11 2.16467e+11 2.13514e+11 2.13514e+11 2.10571e+11 2.10571e+11 2.07639e+11 2.07639e+11 2.04716e+11 2.04716e+11 2.01805e+11 2.01805e+11 1.98903e+11 1.98903e+11 1.96012e+11 1.96012e+11 1.93132e+11 1.9313