# vtk DataFile Version 3.0
#This file was generated by the deal.II library on 2020/9/6 at 2:58:14
ASCII
DATASET UNSTRUCTURED_GRID

POINTS 4096 double
1.5 0 0
1.59692 0 0
1.59692 0 0
1.69385 0 0
1.69385 0 0
1.79077 0 0
1.79077 0 0
1.8877 0 0
1.8877 0 0
1.98462 0 0
1.98462 0 0
2.08154 0 0
2.08154 0 0
2.17847 0 0
2.17847 0 0
2.27539 0 0
2.27539 0 0
2.37231 0 0
2.37231 0 0
2.46924 0 0
2.46924 0 0
2.56616 0 0
2.56616 0 0
2.66309 0 0
2.66309 0 0
2.76001 0 0
2.76001 0 0
2.85693 0 0
2.85693 0 0
2.95386 0 0
2.95386 0 0
3.05078 0 0
3.05078 0 0
3.14771 0 0
3.14771 0 0
3.24463 0 0
3.24463 0 0
3.34155 0 0
3.34155 0 0
3.43848 0 0
3.43848 0 0
3.5354 0 0
3.5354 0 0
3.63232 0 0
3.63232 0 0
3.72925 0 0
3.72925 0 0
3.82617 0 0
3.82617 0 0
3.9231 0 0
3.9231 0 0
4.02002 0 0
4.02002 0 0
4.11694 0 0
4.11694 0 0
4.21387 0 0
4.21387 0 0
4.31079 0 0
4.31079 0 0
4.40771 0 0
4.40771 0 0
4.50464 0 0
4.50464 0 0
4.60156 0 0
4.60156 0 0
4.69849 0 0
4.69849 0 0
4.79541 0 0
4.79541 0 0
4.89233 0 0
4.89233 0 0
4.98926 0 0
4.98926 0 0
5.08618 0 0
5.08618 0 0
5.18311 0 0
5.18311 0 0
5.28003 0 0
5.28003 0 0
5.37695 0 0
5.37695 0 0
5.47388 0 0
5.47388 0 0
5.5708 0 0
5.5708 0 0
5.66772 0 0
5.66772 0 0
5.76465 0 0
5.76465 0 0
5.86157 0 0
5.86157 0 0
5.9585 0 0
5.9585 0 0
6.05542 0 0
6.05542 0 0
6.15234 0 0
6.15234 0 0
6.24927 0 0
6.24927 0 0
6.34619 0 0
6.34619 0 0
6.44312 0 0
6.44312 0 0
6.54004 0 0
6.54004 0 0
6.63696 0 0
6.63696 0 0
6.73389 0 0
6.73389 0 0
6.83081 0 0
6.83081 0 0
6.92773 0 0
6.92773 0 0
7.02466 0 0
7.02466 0 0
7.12158 0 0
7.12158 0 0
7.21851 0 0
7.21851 0 0
7.31543 0 0
7.31543 0 0
7.41235 0 0
7.41235 0 0
7.50928 0 0
7.50928 0 0
7.6062 0 0
7.6062 0 0
7.70312 0 0
7.70312 0 0
7.80005 0 0
7.80005 0 0
7.89697 0 0
7.89697 0 0
7.9939 0 0
7.9939 0 0
8.09082 0 0
8.09082 0 0
8.18774 0 0
8.18774 0 0
8.28467 0 0
8.28467 0 0
8.38159 0 0
8.38159 0 0
8.47852 0 0
8.47852 0 0
8.57544 0 0
8.57544 0 0
8.67236 0 0
8.67236 0 0
8.76929 0 0
8.76929 0 0
8.86621 0 0
8.86621 0 0
8.96313 0 0
8.96313 0 0
9.06006 0 0
9.06006 0 0
9.15698 0 0
9.15698 0 0
9.25391 0 0
9.25391 0 0
9.35083 0 0
9.35083 0 0
9.44775 0 0
9.44775 0 0
9.54468 0 0
9.54468 0 0
9.6416 0 0
9.6416 0 0
9.73853 0 0
9.73853 0 0
9.83545 0 0
9.83545 0 0
9.93237 0 0
9.93237 0 0
10.0293 0 0
10.0293 0 0
10.1262 0 0
10.1262 0 0
10.2231 0 0
10.2231 0 0
10.3201 0 0
10.3201 0 0
10.417 0 0
10.417 0 0
10.5139 0 0
10.5139 0 0
10.6108 0 0
10.6108 0 0
10.7078 0 0
10.7078 0 0
10.8047 0 0
10.8047 0 0
10.9016 0 0
10.9016 0 0
10.9985 0 0
10.9985 0 0
11.0955 0 0
11.0955 0 0
11.1924 0 0
11.1924 0 0
11.2893 0 0
11.2893 0 0
11.3862 0 0
11.3862 0 0
11.4832 0 0
11.4832 0 0
11.5801 0 0
11.5801 0 0
11.677 0 0
11.677 0 0
11.7739 0 0
11.7739 0 0
11.8708 0 0
11.8708 0 0
11.9678 0 0
11.9678 0 0
12.0647 0 0
12.0647 0 0
12.1616 0 0
12.1616 0 0
12.2585 0 0
12.2585 0 0
12.3555 0 0
12.3555 0 0
12.4524 0 0
12.4524 0 0
12.5493 0 0
12.5493 0 0
12.6462 0 0
12.6462 0 0
12.7432 0 0
12.7432 0 0
12.8401 0 0
12.8401 0 0
12.937 0 0
12.937 0 0
13.0339 0 0
13.0339 0 0
13.1309 0 0
13.1309 0 0
13.2278 0 0
13.2278 0 0
13.3247 0 0
13.3247 0 0
13.4216 0 0
13.4216 0 0
13.5186 0 0
13.5186 0 0
13.6155 0 0
13.6155 0 0
13.7124 0 0
13.7124 0 0
13.8093 0 0
13.8093 0 0
13.9062 0 0
13.9062 0 0
14.0032 0 0
14.0032 0 0
14.1001 0 0
14.1001 0 0
14.197 0 0
14.197 0 0
14.2939 0 0
14.2939 0 0
14.3909 0 0
14.3909 0 0
14.4878 0 0
14.4878 0 0
14.5847 0 0
14.5847 0 0
14.6816 0 0
14.6816 0 0
14.7786 0 0
14.7786 0 0
14.8755 0 0
14.8755 0 0
14.9724 0 0
14.9724 0 0
15.0693 0 0
15.0693 0 0
15.1663 0 0
15.1663 0 0
15.2632 0 0
15.2632 0 0
15.3601 0 0
15.3601 0 0
15.457 0 0
15.457 0 0
15.554 0 0
15.554 0 0
15.6509 0 0
15.6509 0 0
15.7478 0 0
15.7478 0 0
15.8447 0 0
15.8447 0 0
15.9417 0 0
15.9417 0 0
16.0386 0 0
16.0386 0 0
16.1355 0 0
16.1355 0 0
16.2324 0 0
16.2324 0 0
16.3293 0 0
16.3293 0 0
16.4263 0 0
16.4263 0 0
16.5232 0 0
16.5232 0 0
16.6201 0 0
16.6201 0 0
16.717 0 0
16.717 0 0
16.814 0 0
16.814 0 0
16.9109 0 0
16.9109 0 0
17.0078 0 0
17.0078 0 0
17.1047 0 0
17.1047 0 0
17.2017 0 0
17.2017 0 0
17.2986 0 0
17.2986 0 0
17.3955 0 0
17.3955 0 0
17.4924 0 0
17.4924 0 0
17.5894 0 0
17.5894 0 0
17.6863 0 0
17.6863 0 0
17.7832 0 0
17.7832 0 0
17.8801 0 0
17.8801 0 0
17.9771 0 0
17.9771 0 0
18.074 0 0
18.074 0 0
18.1709 0 0
18.1709 0 0
18.2678 0 0
18.2678 0 0
18.3647 0 0
18.3647 0 0
18.4617 0 0
18.4617 0 0
18.5586 0 0
18.5586 0 0
18.6555 0 0
18.6555 0 0
18.7524 0 0
18.7524 0 0
18.8494 0 0
18.8494 0 0
18.9463 0 0
18.9463 0 0
19.0432 0 0
19.0432 0 0
19.1401 0 0
19.1401 0 0
19.2371 0 0
19.2371 0 0
19.334 0 0
19.334 0 0
19.4309 0 0
19.4309 0 0
19.5278 0 0
19.5278 0 0
19.6248 0 0
19.6248 0 0
19.7217 0 0
19.7217 0 0
19.8186 0 0
19.8186 0 0
19.9155 0 0
19.9155 0 0
20.0125 0 0
20.0125 0 0
20.1094 0 0
20.1094 0 0
20.2063 0 0
20.2063 0 0
20.3032 0 0
20.3032 0 0
20.4001 0 0
20.4001 0 0
20.4971 0 0
20.4971 0 0
20.594 0 0
20.594 0 0
20.6909 0 0
20.6909 0 0
20.7878 0 0
20.7878 0 0
20.8848 0 0
20.8848 0 0
20.9817 0 0
20.9817 0 0
21.0786 0 0
21.0786 0 0
21.1755 0 0
21.1755 0 0
21.2725 0 0
21.2725 0 0
21.3694 0 0
21.3694 0 0
21.4663 0 0
21.4663 0 0
21.5632 0 0
21.5632 0 0
21.6602 0 0
21.6602 0 0
21.7571 0 0
21.7571 0 0
21.854 0 0
21.854 0 0
21.9509 0 0
21.9509 0 0
22.0479 0 0
22.0479 0 0
22.1448 0 0
22.1448 0 0
22.2417 0 0
22.2417 0 0
22.3386 0 0
22.3386 0 0
22.4355 0 0
22.4355 0 0
22.5325 0 0
22.5325 0 0
22.6294 0 0
22.6294 0 0
22.7263 0 0
22.7263 0 0
22.8232 0 0
22.8232 0 0
22.9202 0 0
22.9202 0 0
23.0171 0 0
23.0171 0 0
23.114 0 0
23.114 0 0
23.2109 0 0
23.2109 0 0
23.3079 0 0
23.3079 0 0
23.4048 0 0
23.4048 0 0
23.5017 0 0
23.5017 0 0
23.5986 0 0
23.5986 0 0
23.6956 0 0
23.6956 0 0
23.7925 0 0
23.7925 0 0
23.8894 0 0
23.8894 0 0
23.9863 0 0
23.9863 0 0
24.0833 0 0
24.0833 0 0
24.1802 0 0
24.1802 0 0
24.2771 0 0
24.2771 0 0
24.374 0 0
24.374 0 0
24.4709 0 0
24.4709 0 0
24.5679 0 0
24.5679 0 0
24.6648 0 0
24.6648 0 0
24.7617 0 0
24.7617 0 0
24.8586 0 0
24.8586 0 0
24.9556 0 0
24.9556 0 0
25.0525 0 0
25.0525 0 0
25.1494 0 0
25.1494 0 0
25.2463 0 0
25.2463 0 0
25.3433 0 0
25.3433 0 0
25.4402 0 0
25.4402 0 0
25.5371 0 0
25.5371 0 0
25.634 0 0
25.634 0 0
25.731 0 0
25.731 0 0
25.8279 0 0
25.8279 0 0
25.9248 0 0
25.9248 0 0
26.0217 0 0
26.0217 0 0
26.1187 0 0
26.1187 0 0
26.2156 0 0
26.2156 0 0
26.3125 0 0
26.3125 0 0
26.4094 0 0
26.4094 0 0
26.5063 0 0
26.5063 0 0
26.6033 0 0
26.6033 0 0
26.7002 0 0
26.7002 0 0
26.7971 0 0
26.7971 0 0
26.894 0 0
26.894 0 0
26.991 0 0
26.991 0 0
27.0879 0 0
27.0879 0 0
27.1848 0 0
27.1848 0 0
27.2817 0 0
27.2817 0 0
27.3787 0 0
27.3787 0 0
27.4756 0 0
27.4756 0 0
27.5725 0 0
27.5725 0 0
27.6694 0 0
27.6694 0 0
27.7664 0 0
27.7664 0 0
27.8633 0 0
27.8633 0 0
27.9602 0 0
27.9602 0 0
28.0571 0 0
28.0571 0 0
28.1541 0 0
28.1541 0 0
28.251 0 0
28.251 0 0
28.3479 0 0
28.3479 0 0
28.4448 0 0
28.4448 0 0
28.5417 0 0
28.5417 0 0
28.6387 0 0
28.6387 0 0
28.7356 0 0
28.7356 0 0
28.8325 0 0
28.8325 0 0
28.9294 0 0
28.9294 0 0
29.0264 0 0
29.0264 0 0
29.1233 0 0
29.1233 0 0
29.2202 0 0
29.2202 0 0
29.3171 0 0
29.3171 0 0
29.4141 0 0
29.4141 0 0
29.511 0 0
29.511 0 0
29.6079 0 0
29.6079 0 0
29.7048 0 0
29.7048 0 0
29.8018 0 0
29.8018 0 0
29.8987 0 0
29.8987 0 0
29.9956 0 0
29.9956 0 0
30.0925 0 0
30.0925 0 0
30.1895 0 0
30.1895 0 0
30.2864 0 0
30.2864 0 0
30.3833 0 0
30.3833 0 0
30.4802 0 0
30.4802 0 0
30.5771 0 0
30.5771 0 0
30.6741 0 0
30.6741 0 0
30.771 0 0
30.771 0 0
30.8679 0 0
30.8679 0 0
30.9648 0 0
30.9648 0 0
31.0618 0 0
31.0618 0 0
31.1587 0 0
31.1587 0 0
31.2556 0 0
31.2556 0 0
31.3525 0 0
31.3525 0 0
31.4495 0 0
31.4495 0 0
31.5464 0 0
31.5464 0 0
31.6433 0 0
31.6433 0 0
31.7402 0 0
31.7402 0 0
31.8372 0 0
31.8372 0 0
31.9341 0 0
31.9341 0 0
32.031 0 0
32.031 0 0
32.1279 0 0
32.1279 0 0
32.2249 0 0
32.2249 0 0
32.3218 0 0
32.3218 0 0
32.4187 0 0
32.4187 0 0
32.5156 0 0
32.5156 0 0
32.6125 0 0
32.6125 0 0
32.7095 0 0
32.7095 0 0
32.8064 0 0
32.8064 0 0
32.9033 0 0
32.9033 0 0
33.0002 0 0
33.0002 0 0
33.0972 0 0
33.0972 0 0
33.1941 0 0
33.1941 0 0
33.291 0 0
33.291 0 0
33.3879 0 0
33.3879 0 0
33.4849 0 0
33.4849 0 0
33.5818 0 0
33.5818 0 0
33.6787 0 0
33.6787 0 0
33.7756 0 0
33.7756 0 0
33.8726 0 0
33.8726 0 0
33.9695 0 0
33.9695 0 0
34.0664 0 0
34.0664 0 0
34.1633 0 0
34.1633 0 0
34.2603 0 0
34.2603 0 0
34.3572 0 0
34.3572 0 0
34.4541 0 0
34.4541 0 0
34.551 0 0
34.551 0 0
34.6479 0 0
34.6479 0 0
34.7449 0 0
34.7449 0 0
34.8418 0 0
34.8418 0 0
34.9387 0 0
34.9387 0 0
35.0356 0 0
35.0356 0 0
35.1326 0 0
35.1326 0 0
35.2295 0 0
35.2295 0 0
35.3264 0 0
35.3264 0 0
35.4233 0 0
35.4233 0 0
35.5203 0 0
35.5203 0 0
35.6172 0 0
35.6172 0 0
35.7141 0 0
35.7141 0 0
35.811 0 0
35.811 0 0
35.908 0 0
35.908 0 0
36.0049 0 0
36.0049 0 0
36.1018 0 0
36.1018 0 0
36.1987 0 0
36.1987 0 0
36.2957 0 0
36.2957 0 0
36.3926 0 0
36.3926 0 0
36.4895 0 0
36.4895 0 0
36.5864 0 0
36.5864 0 0
36.6833 0 0
36.6833 0 0
36.7803 0 0
36.7803 0 0
36.8772 0 0
36.8772 0 0
36.9741 0 0
36.9741 0 0
37.071 0 0
37.071 0 0
37.168 0 0
37.168 0 0
37.2649 0 0
37.2649 0 0
37.3618 0 0
37.3618 0 0
37.4587 0 0
37.4587 0 0
37.5557 0 0
37.5557 0 0
37.6526 0 0
37.6526 0 0
37.7495 0 0
37.7495 0 0
37.8464 0 0
37.8464 0 0
37.9434 0 0
37.9434 0 0
38.0403 0 0
38.0403 0 0
38.1372 0 0
38.1372 0 0
38.2341 0 0
38.2341 0 0
38.3311 0 0
38.3311 0 0
38.428 0 0
38.428 0 0
38.5249 0 0
38.5249 0 0
38.6218 0 0
38.6218 0 0
38.7188 0 0
38.7188 0 0
38.8157 0 0
38.8157 0 0
38.9126 0 0
38.9126 0 0
39.0095 0 0
39.0095 0 0
39.1064 0 0
39.1064 0 0
39.2034 0 0
39.2034 0 0
39.3003 0 0
39.3003 0 0
39.3972 0 0
39.3972 0 0
39.4941 0 0
39.4941 0 0
39.5911 0 0
39.5911 0 0
39.688 0 0
39.688 0 0
39.7849 0 0
39.7849 0 0
39.8818 0 0
39.8818 0 0
39.9788 0 0
39.9788 0 0
40.0757 0 0
40.0757 0 0
40.1726 0 0
40.1726 0 0
40.2695 0 0
40.2695 0 0
40.3665 0 0
40.3665 0 0
40.4634 0 0
40.4634 0 0
40.5603 0 0
40.5603 0 0
40.6572 0 0
40.6572 0 0
40.7542 0 0
40.7542 0 0
40.8511 0 0
40.8511 0 0
40.948 0 0
40.948 0 0
41.0449 0 0
41.0449 0 0
41.1418 0 0
41.1418 0 0
41.2388 0 0
41.2388 0 0
41.3357 0 0
41.3357 0 0
41.4326 0 0
41.4326 0 0
41.5295 0 0
41.5295 0 0
[...]
POINT_DATA 4096
SCALARS solution_0 double 1
LOOKUP_TABLE default
1.11102e+07 1.088e+07 1.088e+07 1.06859e+07 1.06859e+07 1.05206e+07 1.05206e+07 1.03785e+07 1.03785e+07 1.02552e+07 1.02552e+07 1.01472e+07 1.01472e+07 1.0052e+07 1.0052e+07 9.96718e+06 9.96718e+06 9.89113e+06 9.89113e+06 9.82237e+06 9.82237e+06 9.75973e+06 9.75973e+06 9.70223e+06 9.70223e+06 9.64906e+06 9.64906e+06 9.59954e+06 9.59954e+06 9.5531e+06 9.5531e+06 9.50927e+06 9.50927e+06 9.46764e+06 9.46764e+06 9.42788e+06 9.42788e+06 9.38967e+06 9.38967e+06 9.35278e+06 9.35278e+06 9.31699e+06 9.31699e+06 9.28211e+06 9.28211e+06 9.248e+06 9.248e+06 9.21451e+06 9.21451e+06 9.18152e+06 9.18152e+06 9.14894e+06 9.14894e+06 9.11668e+06 9.11668e+06 9.08467e+06 9.08467e+06 9.05283e+06 9.05283e+06 9.02112e+06 9.02112e+06 8.98949e+06 8.98949e+06 8.9579e+06 8.9579e+06 8.9263e+06 8.9263e+06 8.89469e+06 8.89469e+06 8.86302e+06 8.86302e+06 8.83128e+06 8.83128e+06 8.79945e+06 8.79945e+06 8.76752e+06 8.76752e+06 8.73547e+06 8.73547e+06 8.70329e+06 8.70329e+06 8.67098e+06 8.67098e+06 8.63854e+06 8.63854e+06 8.60595e+06 8.60595e+06 8.57322e+06 8.57322e+06 8.54034e+06 8.54034e+06 8.50732e+06 8.50732e+06 8.47415e+06 8.47415e+06 8.44084e+06 8.44084e+06 8.40738e+06 8.40738e+06 8.37379e+06 8.37379e+06 8.34005e+06 8.34005e+06 8.30619e+06 8.30619e+06 8.2722e+06 8.2722e+06 8.23808e+06 8.23808e+06 8.20385e+06 8.20385e+06 8.1695e+06 8.1695e+06 8.13504e+06 8.13504e+06 8.10047e+06 8.10047e+06 8.06581e+06 8.06581e+06 8.03105e+06 8.03105e+06 7.99621e+06 7.99621e+06 7.96128e+06 7.96128e+06 7.92628e+06 7.92628e+06 7.89121e+06 7.89121e+06 7.85607e+06 7.85607e+06 7.82088e+06 7.82088e+06 7.78562e+06 7.78562e+06 7.75032e+06 7.75032e+06 7.71498e+06 7.71498e+06 7.6796e+06 7.6796e+06 7.64419e+06 7.64419e+06 7.60875e+06 7.60875e+06 7.57329e+06 7.57329e+06 7.53781e+06 7.53781e+06 7.50233e+06 7.50233e+06 7.46683e+06 7.46683e+06 7.43134e+06 7.43134e+06 7.39584e+06 7.39584e+06 7.36036e+06 7.36036e+06 7.32489e+06 7.32489e+06 7.28943e+06 7.28943e+06 7.254e+06 7.254e+06 7.21859e+06 7.21859e+06 7.18321e+06 7.18321e+06 7.14786e+06 7.14786e+06 7.11256e+06 7.11256e+06 7.07729e+06 7.07729e+06 7.04207e+06 7.04207e+06 7.0069e+06 7.0069e+06 6.97178e+06 6.97178e+06 6.93672e+06 6.93672e+06 6.90172e+06 6.90172e+06 6.86678e+06 6.86678e+06 6.83191e+06 6.83191e+06 6.7971e+06 6.7971e+06 6.76237e+06 6.76237e+06 6.72772e+06 6.72772e+06 6.69314e+06 6.69314e+06 6.65864e+06 6.65864e+06 6.62423e+06 6.62423e+06 6.5899e+06 6.5899e+06 6.55566e+06 6.55566e+06 6.52151e+06 6.52151e+06 6.48746e+06 6.48746e+06 6.4535e+06 6.4535e+06 6.41964e+06 6.41964e+06 6.38588e+06 6.38588e+06 6.35222e+06 6.35222e+06 6.31866e+06 6.31866e+06 6.28522e+06 6.28522e+06 6.25187e+06 6.25187e+06 6.21864e+06 6.21864e+06 6.18552e+06 6.18552e+06 6.15251e+06 6.15251e+06 6.11962e+06 6.11962e+06 6.08684e+06 6.08684e+06 6.05418e+06 6.05418e+06 6.02164e+06 6.02164e+06 5.98922e+06 5.98922e+06 5.95692e+06 5.95692e+06 5.92474e+06 5.92474e+06 5.89269e+06 5.89269e+06 5.86076e+06 5.86076e+06 5.82896e+06 5.82896e+06 5.79728e+06 5.79728e+06 5.76573e+06 5.76573e+06 5.73432e+06 5.73432e+06 5.70303e+06 5.70303e+06 5.67187e+06 5.67187e+06 5.64084e+06 5.64084e+06 5.60995e+06 5.60995e+06 5.57918e+06 5.57918e+06 5.54856e+06 5.54856e+06 5.51806e+06 5.51806e+06 5.4877e+06 5.4877e+06 5.45748e+06 5.45748e+06 5.42739e+06 5.42739e+06 5.39744e+06 5.39744e+06 5.36762e+06 5.36762e+06 5.33794e+06 5.33794e+06 5.3084e+06 5.3084e+06 5.279e+06 5.279e+06 5.24974e+06 5.24974e+06 5.22061e+06 5.22061e+06 5.19162e+06 5.19162e+06 5.16278e+06 5.16278e+06 5.13407e+06 5.13407e+06 5.1055e+06 5.1055e+06 5.07706e+06 5.07706e+06 5.04877e+06 5.04877e+06 5.02062e+06 5.02062e+06 4.99261e+06 4.99261e+06 4.96474e+06 4.96474e+06 4.93701e+06 4.93701e+06 4.90942e+06 4.90942e+06 4.88196e+06 4.88196e+06 4.85465e+06 4.85465e+06 4.82748e+06 4.82748e+06 4.80044e+06 4.80044e+06 4.77355e+06 4.77355e+06 4.7468e+06 4.7468e+06 4.72018e+06 4.72018e+06 4.6937e+06 4.6937e+06 4.66737e+06 4.66737e+06 4.64117e+06 4.64117e+06 4.61511e+06 4.61511e+06 4.58919e+06 4.58919e+06 4.5634e+06 4.5634e+06 4.53776e+06 4.53776e+06 4.51225e+06 4.51225e+06 4.48688e+06 4.48688e+06 4.46164e+06 4.46164e+06 4.43655e+06 4.43655e+06 4.41158e+06 4.41158e+06 4.38676e+06 4.38676e+06 4.36207e+06 4.36207e+06 4.33752e+06 4.33752e+06 4.3131e+06 4.3131e+06 4.28881e+06 4.28881e+06 4.26466e+06 4.26466e+06 4.24064e+06 4.24064e+06 4.21676e+06 4.21676e+06 4.19301e+06 4.19301e+06 4.16939e+06 4.16939e+06 4.14591e+06 4.14591e+06 4.12255e+06 4.12255e+06 4.09933e+06 4.09933e+06 4.07624e+06 4.07624e+06 4.05327e+06 4.05327e+06 4.03044e+06 4.03044e+06 4.00774e+06 4.00774e+06 3.98516e+06 3.98516e+06 3.96272e+06 3.96272e+06 3.9404e+06 3.9404e+06 3.91821e+06 3.91821e+06 3.89615e+06 3.89615e+06 3.87421e+06 3.87421e+06 3.8524e+06 3.8524e+06 3.83071e+06 3.83071e+06 3.80915e+06 3.80915e+06 3.78772e+06 3.78772e+06 3.7664e+06 3.7664e+06 3.74522e+06 3.74522e+06 3.72415e+06 3.72415e+06 3.7032e+06 3.7032e+06 3.68238e+06 3.68238e+06 3.66168e+06 3.66168e+06 3.6411e+06 3.6411e+06 3.62064e+06 3.62064e+06 3.60029e+06 3.60029e+06 3.58007e+06 3.58007e+06 3.55997e+06 3.55997e+06 3.53998e+06 3.53998e+06 3.52011e+06 3.52011e+06 3.50035e+06 3.50035e+06 3.48072e+06 3.48072e+06 3.4612e+06 3.4612e+06 3.44179e+06 3.44179e+06 3.42249e+06 3.42249e+06 3.40332e+06 3.40332e+06 3.38425e+06 3.38425e+06 3.3653e+06 3.3653e+06 3.34645e+06 3.34645e+06 3.32772e+06 3.32772e+06 3.30911e+06 3.30911e+06 3.2906e+06 3.2906e+06 3.2722e+06 3.2722e+06 3.25391e+06 3.25391e+06 3.23573e+06 3.23573e+06 3.21765e+06 3.21765e+06 3.19969e+06 3.19969e+06 3.18183e+06 3.18183e+06 3.16407e+06 3.16407e+06 3.14642e+06 3.14642e+06 3.12888e+06 3.12888e+06 3.11144e+06 3.11144e+06 3.09411e+06 3.09411e+06 3.07688e+06 3.07688e+06 3.05975e+06 3.05975e+06 3.04272e+06 3.04272e+06 3.0258e+06 3.0258e+06 3.00898e+06 3.00898e+06 2.99225e+06 2.99225e+06 2.97563e+06 2.97563e+06 2.9591e+06 2.9591e+06 2.94268e+06 2.94268e+06 2.92635e+06 2.92635e+06 2.91012e+06 2.91012e+06 2.89399e+06 2.89399e+06 2.87795e+06 2.87795e+06 2.86201e+06 2.86201e+06 2.84617e+06 2.84617e+06 2.83042e+06 2.83042e+06 2.81476e+06 2.81476e+06 2.7992e+06 2.7992e+06 2.78373e+06 2.78373e+06 2.76836e+06 2.76836e+06 2.75307e+06 2.75307e+06 2.73788e+06 2.73788e+06 2.72278e+06 2.72278e+06 2.70776e+06 2.70776e+06 2.69284e+06 2.69284e+06 2.67801e+06 2.67801e+06 2.66326e+06 2.66326e+06 2.64861e+06 2.64861e+06 2.63404e+06 2.63404e+06 2.61956e+06 2.61956e+06 2.60517e+06 2.60517e+06 2.59086e+06 2.59086e+06 2.57663e+06 2.57663e+06 2.5625e+06 2.5625e+06 2.54844e+06 2.54844e+06 2.53447e+06 2.53447e+06 2.52059e+06 2.52059e+06 2.50678e+06 2.50678e+06 2.49306e+06 2.49306e+06 2.47943e+06 2.47943e+06 2.46587e+06 2.46587e+06 2.45239e+06 2.45239e+06 2.439e+06 2.439e+06 2.42568e+06 2.42568e+06 2.41244e+06 2.41244e+06 2.39928e+06 2.39928e+06 2.38621e+06 2.38621e+06 2.3732e+06 2.3732e+06 2.36028e+06 2.36028e+06 2.34743e+06 2.34743e+06 2.33466e+06 2.33466e+06 2.32197e+06 2.32197e+06 2.30935e+06 2.30935e+06 2.2968e+06 2.2968e+06 2.28433e+06 2.28433e+06 2.27194e+06 2.27194e+06 2.25961e+06 2.25961e+06 2.24737e+06 2.24737e+06 2.23519e+06 2.23519e+06 2.22308e+06 2.22308e+06 2.21105e+06 2.21105e+06 2.19909e+06 2.19909e+06 2.1872e+06 2.1872e+06 2.17538e+06 2.17538e+06 2.16363e+06 2.16363e+06 2.15195e+06 2.15195e+06 2.14034e+06 2.14034e+06 2.12879e+06 2.12879e+06 2.11732e+06 2.11732e+06 2.10591e+06 2.10591e+06 2.09457e+06 2.09457e+06 2.08329e+06 2.08329e+06 2.07209e+06 2.07209e+06 2.06094e+06 2.06094e+06 2.04987e+06 2.04987e+06 2.03886e+06 2.03886e+06 2.02791e+06 2.02791e+06 2.01703e+06 2.01703e+06 2.00621e+06 2.00621e+06 1.99546e+06 1.99546e+06 1.98476e+06 1.98476e+06 1.97414e+06 1.97414e+06 1.96357e+06 1.96357e+06 1.95306e+06 1.95306e+06 1.94262e+06 1.94262e+06 1.93224e+06 1.93224e+06 1.92191e+06 1.92191e+06 1.91165e+06 1.91165e+06 1.90145e+06 1.90145e+06 1.89131e+06 1.89131e+06 1.88122e+06 1.88122e+06 1.8712e+06 1.8712e+06 1.86123e+06 1.86123e+06 1.85132e+06 1.85132e+06 1.84147e+06 1.84147e+06 1.83167e+06 1.83167e+06 1.82194e+06 1.82194e+06 1.81225e+06 1.81225e+06 1.80263e+06 1.80263e+06 1.79306e+06 1.79306e+06 1.78354e+06 1.78354e+06 1.77408e+06 1.77408e+06 1.76468e+06 1.76468e+06 1.75533e+06 1.75533e+06 1.74603e+06 1.74603e+06 1.73679e+06 1.73679e+06 1.72759e+06 1.72759e+06 1.71846e+06 1.71846e+06 1.70937e+06 1.70937e+06 1.70034e+06 1.70034e+06 1.69136e+06 1.69136e+06 1.68243e+06 1.68243e+06 1.67355e+06 1.67355e+06 1.66472e+06 1.66472e+06 1.65594e+06 1.65594e+06 1.64721e+06 1.64721e+06 1.63853e+06 1.63853e+06 1.6299e+06 1.6299e+06 1.62132e+06 1.62132e+06 1.61279e+06 1.61279e+06 1.60431e+06 1.60431e+06 1.59588e+06 1.59588e+06 1.58749e+06 1.58749e+06 1.57915e+06 1.57915e+06 1.57086e+06 1.57086e+06 1.56261e+06 1.56261e+06 1.55442e+06 1.55442e+06 1.54626e+06 1.54626e+06 1.53816e+06 1.53816e+06 1.5301e+06 1.5301e+06 1.52208e+06 1.52208e+06 1.51411e+06 1.51411e+06 1.50618e+06 1.50618e+06 1.4983e+06 1.4983e+06 1.49047e+06 1.49047e+06 1.48267e+06 1.48267e+06 1.47493e+06 1.47493e+06 1.46722e+06 1.46722e+06 1.45956e+06 1.45956e+06 1.45194e+06 1.45194e+06 1.44436e+06 1.44436e+06 1.43682e+06 1.43682e+06 1.42933e+06 1.42933e+06 1.42188e+06 1.42188e+06 1.41447e+06 1.41447e+06 1.4071e+06 1.4071e+06 1.39977e+06 1.39977e+06 1.39248e+06 1.39248e+06 1.38523e+06 1.38523e+06 1.37803e+06 1.37803e+06 1.37086e+06 1.37086e+06 1.36373e+06 1.36373e+06 1.35664e+06 1.35664e+06 1.34959e+06 1.34959e+06 1.34258e+06 1.34258e+06 1.33561e+06 1.33561e+06 1.32867e+06 1.32867e+06 1.32178e+06 1.32178e+06 1.31492e+06 1.31492e+06 1.3081e+06 1.3081e+06 1.30131e+06 1.30131e+06 1.29457e+06 1.29457e+06 1.28786e+06 1.28786e+06 1.28118e+06 1.28118e+06 1.27455e+06 1.27455e+06 1.26795e+06 1.26795e+06 1.26138e+06 1.26138e+06 1.25485e+06 1.25485e+06 1.24836e+06 1.24836e+06 1.2419e+06 1.2419e+06 1.23548e+06 1.23548e+06 1.22909e+06 1.22909e+06 1.22273e+06 1.22273e+06 1.21641e+06 1.21641e+06 1.21012e+06 1.21012e+06 1.20387e+06 1.20387e+06 1.19765e+06 1.19765e+06 1.19147e+06 1.19147e+06 1.18532e+06 1.18532e+06 1.1792e+06 1.1792e+06 1.17311e+06 1.17311e+06 1.16706e+06 1.16706e+06 1.16103e+06 1.16103e+06 1.15504e+06 1.15504e+06 1.14909e+06 1.14909e+06 1.14316e+06 1.14316e+06 1.13727e+06 1.13727e+06 1.1314e+06 1.1314e+06 1.12557e+06 1.12557e+06 1.11977e+06 1.11977e+06 1.114e+06 1.114e+06 1.10826e+06 1.10826e+06 1.10255e+06 1.10255e+06 1.09687e+06 1.09687e+06 1.09122e+06 1.09122e+06 1.0856e+06 1.0856e+06 1.08001e+06 1.08001e+06 1.07445e+06 1.07445e+06 1.06892e+06 1.06892e+06 1.06342e+06 1.06342e+06 1.05794e+06 1.05794e+06 1.0525e+06 1.0525e+06 1.04708e+06 1.04708e+06 1.04169e+06 1.04169e+06 1.03633e+06 1.03633e+06 1.031e+06 1.031e+06 1.02569e+06 1.02569e+06 1.02042e+06 1.02042e+06 1.01517e+06 1.01517e+06 1.00995e+06 1.00995e+06 1.00475e+06 1.00475e+06 999581 999581 994439 994439 989324 989324 984235 984235 979173 979173 974136 974136 969126 969126 964140 964140 959181 959181 954247 954247 949338 949338 944455 944455 939596 939596 934762 934762 929953 929953 925168 925168 920407 920407 915671 915671 910959 910959 906270 906270 901606 901606 896964 896964 892347 892347 887752 887752 883181 883181 878633 878633 874107 874107 869604 869604 865124 865124 860667 860667 856231 856231 851818 851818 847427 847427 843057 843057 838710 838710 834384 834384 830080 830080 825796 825796 821535 821535 817294 817294 813074 813074 808875 808875 804697 804697 800540 800540 796402 796402 792286 792286 788189 788189 784113 784113 780056 780056 776020 776020 772003 772003 768006 768006 764028 764028 760070 760070 756131 756131 752211 752211 748310 748310 744428 744428 740565 740565 736720 736720 732894 732894 729087 729087 725298 725298 721527 721527 717775 717775 714040 714040 710324 710324 706625 706625 702944 702944 699281 699281 695635 695635 692006 692006 688395 688395 684801 684801 681224 681224 677664 677664 674121 674121 670595 670595 667086 667086 663593 663593 660117 660117 656657 656657 653213 653213 649786 649786 646375 646375 642979 642979 639600 639600 636237 636237 632889 632889 629557 629557 626241 626241 622940 622940 619654 619654 616384 616384 613129 613129 609889 609889 606664 606664 603454 603454 600260 600260 597079 597079 593914 593914 590763 590763 587626 587626 584505 584505 581397 581397 578304 578304 575225 575225 572160 572160 569109 569109 566072 566072 563049 563049 560040 560040 557044 557044 554062 554062 551094 551094 548139 548139 545198 545198 542270 542270 539355 539355 536454 536454 533565 533565 530690 530690 527827 527827 524978 524978 522141 522141 519317 519317 516506 516506 513707 513707 510921 510921 508147 508147 505386 505386 502637 502637 499901 499901 497176 497176 494464 494464 491764 491764 489075 489075 486399 486399 483735 483735 481082 481082 478441 478441 475812 475812 473194 473194 470588 470588 467994 467994 465410 465410 462839 462839 460278 460278 457729 457729 455191 455191 452664 452664 450148 450148 447643 447643 445149 445149 442665 442665 440193 440193 437731 437731 435280 435280 432840 432840 430410 430410 427991 427991 425583 425583 423184 423184 420796 420796 418419 418419 416051 416051 413694 413694 411347 411347 409010 409010 406683 406683 404366 404366 402059 402059 399762 399762 397474 397474 395197 395197 392929 392929 390670 390670 388422 388422 386183 386183 383953 383953 381733 381733 379522 379522 377321 377321 375129 375129 372946 372946 370772 370772 368608 368608 366453 366453 364306 364306 362169 362169 360041 360041 357922 357922 355811 355811 353710 353710 351617 351617 349533 349533 347457 347457 345391 345391 343333 343333 341283 341283 339242 339242 337209 337209 335185 335185 333170 333170 331162 331162 329163 329163 327172 327172 325190 325190 323215 323215 321249 321249 319291 319291 317341 317341 315399 315399 313464 313464 311538 311538 309620 309620 307709 307709 305807 305807 303912 303912 302025 302025 300145 300145 298273 298273 296409 296409 294552 294552 292703 292703 290862 290862 289028 289028 287201 287201 285382 285382 283570 283570 281765 281765 279968 279968 278177 278177 276394 276394 274619 274619 272850 272850 271089 271089 269334 269334 267587 267587 265846 265846 264113 264113 262386 262386 260667 260667 258954 258954 257248 257248 255549 255549 253856 253856 252171 252171 250492 250492 248819 248819 247153 247153 245494 245494 243842 243842 242196 242196 240556 240556 238923 238923 237296 237296 235676 235676 234062 234062 232455 232455 230854 230854 229259 229259 227670 227670 226088 226088 224511 224511 222941 222941 221377 221377 219820 219820 218268 218268 216722 216722 215182 215182 213649 213649 212121 212121 210599 210599 209083 209083 207573 207573 206069 206069 204570 204570 203078 203078 201591 201591 200110 200110 198634 198634 197164 197164 195700 195700 194242 194242 192789 192789 191342 191342 189900 189900 188464 188464 187033 187033 185608 185608 184188 184188 182774 182774 181365 181365 179961 179961 178563 178563 177170 177170 175782 175782 174400 174400 173023 173023 171651 171651 170284 170284 168923 168923 167566 167566 166215 166215 164869 164869 163528 163528 162192 162192 160861 160861 159535 159535 158214 158214 156898 156898 155587 155587 154280 154280 152979 152979 151683 151683 150391 150391 149105 149105 147823 147823 146545 146545 145273 145273 144006 144006 142743 142743 141484 141484 140231 140231 138982 138982 137738 137738 136498 136498 135263 135263 134033 134033 132807 132807 131585 131585 130369 130369 129156 129156 127948 127948 126745 126745 125546 125546 124351 124351 123161 123161 121975 121975 120794 120794 119617 119617 118444 118444 117275 117275 116111 116111 114951 114951 113796 113796 112644 112644 111497 111497 110354 110354 109215 109215 108080 108080 106949 106949 105823 105823 104700 104700 103582 103582 102467 102467 101357 101357 100251 100251 99148.4 99148.4 98050.1 98050.1 96955.8 96955.8 95865.4 95865.4 94778.9 94778.9 93696.4 93696.4 92617.8 92617.8 91543 91543 90472.2 90472.2 89405.1 89405.1 88342 88342 87282.6 87282.6 86227 86227 85175.2 85175.2 84127.2 84127.2 83082.9 83082.9 82042.4 82042.4 81005.6 81005.6 79972.5 79972.5 78943.1 78943.1 77917.3 77917.3 76895.2 76895.2 75876.8 75876.8 74862 74862 73850.7 73850.7 72843.1 72843.1 71839.1 71839.1 70838.6 70838.6 69841.7 69841.7 68848.3 68848.3 67858.4 67858.4 66872 66872 65889.2 65889.2 64909.8 64909.8 63933.8 63933.8 62961.3 62961.3 61992.2 61992.2 61026.6 61026.6 60064.3 60064.3 59105.5 59105.5 58150 58150 57197.9 57197.9 56249.1 56249.1 55303.6 55303.6 54361.5 54361.5 53422.7 53422.7 52487.1 52487.1 51554.9 51554.9 50625.9 50625.9 49700.1 49700.1 48777.6 48777.6 47858.3 47858.3 46942.2 46942.2 46029.3 46029.3 45119.6 45119.6 44213.1 44213.1 43309.7 43309.7 42409.4 42409.4 41512.3 41512.3 40618.3 40618.3 39727.4 39727.4 38839.6 38839.6 37954.9 37954.9 37073.3 37073.3 36194.7 36194.7 35319.1 35319.1 34446.6 34446.6 33577 33577 32710.5 32710.5 31847 31847 30986.5 30986.5 30128.9 30128.9 29274.3 29274.3 28422.6 28422.6 27573.9 27573.9 26728 26728 25885.1 25885.1 25045.1 25045.1 24207.9 24207.9 23373.7 23373.7 22542.3 22542.3 21713.7 21713.7 20888 20888 20065.1 20065.1 19245 19245 18427.8 18427.8 17613.3 17613.3 16801.6 16801.6 15992.6 15992.6 15186.5 15186.5 14383 14383 13582.3 13582.3 12784.4 12784.4 11989.1 11989.1 11196.6 11196.6 10406.7 10406.7 9619.57 9619.57 8835.07 8835.07 8053.24 8053.24 7274.05 7274.05 6497.51 6497.51 5723.59 5723.59 4952.29 4952.29 4183.61 4183.61 3417.52 3417.52 2654.02 2654.02 1893.09 1893.09 1134.74 1134.74 378.938 378.938 -374.312 -374.312 -1125.02 -1125.02 -1873.21 -1873.21 -2618.88 -2618.88 -3362.04 -3362.04 -4102.7 -4102.7 -4840.87 -4840.87 -5576.57 -5576.57 -6309.79 -6309.79 -7040.56 -7040.56 -7768.88 -7768.88 -8494.75 -8494.75 -9218.2 -9218.2 -9939.23 -9939.23 -10657.8 -10657.8 -11374.1 -11374.1 -12087.9 -12087.9 -12799.3 -12799.3 -13508.4 -13508.4 -14215.1 -14215.1 -14919.4 -14919.4 -15621.4 -15621.4 -16321.1 -16321.1 -17018.4 -17018.4 -17713.4 -17713.4 -18406.1 -18406.1 -19096.5 -19096.5 -19784.6 -19784.6 -20470.4 -20470.4 -21153.9 -21153.9 -21835.2 -21835.2 -22514.2 -22514.2 -23191 -23191 -23865.5 -23865.5 -24537.8 -24537.8 -25207.9 -25207.9 -25875.7 -25875.7 -26541.4 -26541.4 -27204.8 -27204.8 -27866.1 -27866.1 -28525.2 -28525.2 -29182.1 -29182.1 -29836.8 -29836.8 -30489.4 -30489.4 -31139.8 -31139.8 -31788.1 -31788.1 -32434.3 -32434.3 -33078.3 -33078.3 -33720.3 -33720.3 -34360.1 -34360.1 -34997.8 -34997.8 -35633.4 -35633.4 -36266.9 -36266.9 -36898.4 -36898.4 -37527.8 -37527.8 -38155.1 -38155.1 -38780.4 -38780.4 -39403.6 -39403.6 -40024.8 -40024.8 -40644 -40644 -41261.1 -41261.1 -41876.2 -41876.2 -42489.3 -42489.3 -43100.5 -43100.5 -43709.6 -43709.6 -44316.7 -44316.7 -44921.9 -44921.9 -45525.1 -45525.1 -46126.3 -46126.3 -46725.6 -46725.6 -47322.9 -47322.9 -47918.3 -47918.3 -48511.7 -48511.7 -49103.2 -49103.2 -49692.8 -49692.8 -50280.5 -50280.5 -50866.3 -50866.3 -51450.2 -51450.2 -52032.1 -52032.1 -52612.3 -52612.3 -53190.5 -53190.5 -53766.8 -53766.8 -54341.3 -54341.3 -54914 -54914 -55484.8 -55484.8 -56053.7 -56053.7 -56620.8 -56620.8 -57186.1 -57186.1 -57749.5 -57749.5 -58311.2 -58311.2 -58871 -58871 -59429 -59429 -59985.3 -59985.3 -60539.7 -60539.7 -61092.3 -61092.3 -61643.2 -61643.2 -62192.3 -62192.3 -62739.7 -62739.7 -63285.3 -63285.3 -63829.1 -63829.1 -64371.2 -64371.2 -64911.6 -64911.6 -65450.2 -65450.2 -65987.1 -65987.1 -66522.2 -66522.2 -67055.7 -67055.7 -67587.4 -67587.4 -68117.5 -68117.5 -68645.8 -68645.8 -69172.5 -69172.5 -69697.5 -69697.5 -70220.8 -70220.8 -70742.4 -70742.4 -71262.4 -71262.4 -71780.7 -71780.7 -72297.3 -72297.3 -72812.3 -72812.3 -73325.6 -73325.6 -73837.3 -73837.3 -74347.4 -74347.4 -74855.8 -74855.8 -75362.7 -75362.7 -75867.9 -75867.9 -76371.4 -76371.4 -76873.4 -76873.4 -77373.8 -77373.8 -77872.6 -77872.6 -78369.8 -78369.8 -78865.4 -78865.4 -79359.5 -79359.5 -79851.9 -79851.9 -80342.9 -80342.9 -80832.2 -80832.2 -81320 -81320 -81806.2 -81806.2 -82290.9 -82290.9 -82774.1 -82774.1 -83255.7 -83255.7 -83735.8 -83735.8 -84214.4 -84214.4 -84691.5 -84691.5 -85167.1 -85167.1 -85641.2 -85641.2 -86113.7 -86113.7 -86