# vtk DataFile Version 3.0
#This file was generated by the deal.II library on 2020/9/6 at 2:57:39
ASCII
DATASET UNSTRUCTURED_GRID

POINTS 4096 double
1.5 0 0
1.59692 0 0
1.59692 0 0
1.69385 0 0
1.69385 0 0
1.79077 0 0
1.79077 0 0
1.8877 0 0
1.8877 0 0
1.98462 0 0
1.98462 0 0
2.08154 0 0
2.08154 0 0
2.17847 0 0
2.17847 0 0
2.27539 0 0
2.27539 0 0
2.37231 0 0
2.37231 0 0
2.46924 0 0
2.46924 0 0
2.56616 0 0
2.56616 0 0
2.66309 0 0
2.66309 0 0
2.76001 0 0
2.76001 0 0
2.85693 0 0
2.85693 0 0
2.95386 0 0
2.95386 0 0
3.05078 0 0
3.05078 0 0
3.14771 0 0
3.14771 0 0
3.24463 0 0
3.24463 0 0
3.34155 0 0
3.34155 0 0
3.43848 0 0
3.43848 0 0
3.5354 0 0
3.5354 0 0
3.63232 0 0
3.63232 0 0
3.72925 0 0
3.72925 0 0
3.82617 0 0
3.82617 0 0
3.9231 0 0
3.9231 0 0
4.02002 0 0
4.02002 0 0
4.11694 0 0
4.11694 0 0
4.21387 0 0
4.21387 0 0
4.31079 0 0
4.31079 0 0
4.40771 0 0
4.40771 0 0
4.50464 0 0
4.50464 0 0
4.60156 0 0
4.60156 0 0
4.69849 0 0
4.69849 0 0
4.79541 0 0
4.79541 0 0
4.89233 0 0
4.89233 0 0
4.98926 0 0
4.98926 0 0
5.08618 0 0
5.08618 0 0
5.18311 0 0
5.18311 0 0
5.28003 0 0
5.28003 0 0
5.37695 0 0
5.37695 0 0
5.47388 0 0
5.47388 0 0
5.5708 0 0
5.5708 0 0
5.66772 0 0
5.66772 0 0
5.76465 0 0
5.76465 0 0
5.86157 0 0
5.86157 0 0
5.9585 0 0
5.9585 0 0
6.05542 0 0
6.05542 0 0
6.15234 0 0
6.15234 0 0
6.24927 0 0
6.24927 0 0
6.34619 0 0
6.34619 0 0
6.44312 0 0
6.44312 0 0
6.54004 0 0
6.54004 0 0
6.63696 0 0
6.63696 0 0
6.73389 0 0
6.73389 0 0
6.83081 0 0
6.83081 0 0
6.92773 0 0
6.92773 0 0
7.02466 0 0
7.02466 0 0
7.12158 0 0
7.12158 0 0
7.21851 0 0
7.21851 0 0
7.31543 0 0
7.31543 0 0
7.41235 0 0
7.41235 0 0
7.50928 0 0
7.50928 0 0
7.6062 0 0
7.6062 0 0
7.70312 0 0
7.70312 0 0
7.80005 0 0
7.80005 0 0
7.89697 0 0
7.89697 0 0
7.9939 0 0
7.9939 0 0
8.09082 0 0
8.09082 0 0
8.18774 0 0
8.18774 0 0
8.28467 0 0
8.28467 0 0
8.38159 0 0
8.38159 0 0
8.47852 0 0
8.47852 0 0
8.57544 0 0
8.57544 0 0
8.67236 0 0
8.67236 0 0
8.76929 0 0
8.76929 0 0
8.86621 0 0
8.86621 0 0
8.96313 0 0
8.96313 0 0
9.06006 0 0
9.06006 0 0
9.15698 0 0
9.15698 0 0
9.25391 0 0
9.25391 0 0
9.35083 0 0
9.35083 0 0
9.44775 0 0
9.44775 0 0
9.54468 0 0
9.54468 0 0
9.6416 0 0
9.6416 0 0
9.73853 0 0
9.73853 0 0
9.83545 0 0
9.83545 0 0
9.93237 0 0
9.93237 0 0
10.0293 0 0
10.0293 0 0
10.1262 0 0
10.1262 0 0
10.2231 0 0
10.2231 0 0
10.3201 0 0
10.3201 0 0
10.417 0 0
10.417 0 0
10.5139 0 0
10.5139 0 0
10.6108 0 0
10.6108 0 0
10.7078 0 0
10.7078 0 0
10.8047 0 0
10.8047 0 0
10.9016 0 0
10.9016 0 0
10.9985 0 0
10.9985 0 0
11.0955 0 0
11.0955 0 0
11.1924 0 0
11.1924 0 0
11.2893 0 0
11.2893 0 0
11.3862 0 0
11.3862 0 0
11.4832 0 0
11.4832 0 0
11.5801 0 0
11.5801 0 0
11.677 0 0
11.677 0 0
11.7739 0 0
11.7739 0 0
11.8708 0 0
11.8708 0 0
11.9678 0 0
11.9678 0 0
12.0647 0 0
12.0647 0 0
12.1616 0 0
12.1616 0 0
12.2585 0 0
12.2585 0 0
12.3555 0 0
12.3555 0 0
12.4524 0 0
12.4524 0 0
12.5493 0 0
12.5493 0 0
12.6462 0 0
12.6462 0 0
12.7432 0 0
12.7432 0 0
12.8401 0 0
12.8401 0 0
12.937 0 0
12.937 0 0
13.0339 0 0
13.0339 0 0
13.1309 0 0
13.1309 0 0
13.2278 0 0
13.2278 0 0
13.3247 0 0
13.3247 0 0
13.4216 0 0
13.4216 0 0
13.5186 0 0
13.5186 0 0
13.6155 0 0
13.6155 0 0
13.7124 0 0
13.7124 0 0
13.8093 0 0
13.8093 0 0
13.9062 0 0
13.9062 0 0
14.0032 0 0
14.0032 0 0
14.1001 0 0
14.1001 0 0
14.197 0 0
14.197 0 0
14.2939 0 0
14.2939 0 0
14.3909 0 0
14.3909 0 0
14.4878 0 0
14.4878 0 0
14.5847 0 0
14.5847 0 0
14.6816 0 0
14.6816 0 0
14.7786 0 0
14.7786 0 0
14.8755 0 0
14.8755 0 0
14.9724 0 0
14.9724 0 0
15.0693 0 0
15.0693 0 0
15.1663 0 0
15.1663 0 0
15.2632 0 0
15.2632 0 0
15.3601 0 0
15.3601 0 0
15.457 0 0
15.457 0 0
15.554 0 0
15.554 0 0
15.6509 0 0
15.6509 0 0
15.7478 0 0
15.7478 0 0
15.8447 0 0
15.8447 0 0
15.9417 0 0
15.9417 0 0
16.0386 0 0
16.0386 0 0
16.1355 0 0
16.1355 0 0
16.2324 0 0
16.2324 0 0
16.3293 0 0
16.3293 0 0
16.4263 0 0
16.4263 0 0
16.5232 0 0
16.5232 0 0
16.6201 0 0
16.6201 0 0
16.717 0 0
16.717 0 0
16.814 0 0
16.814 0 0
16.9109 0 0
16.9109 0 0
17.0078 0 0
17.0078 0 0
17.1047 0 0
17.1047 0 0
17.2017 0 0
17.2017 0 0
17.2986 0 0
17.2986 0 0
17.3955 0 0
17.3955 0 0
17.4924 0 0
17.4924 0 0
17.5894 0 0
17.5894 0 0
17.6863 0 0
17.6863 0 0
17.7832 0 0
17.7832 0 0
17.8801 0 0
17.8801 0 0
17.9771 0 0
17.9771 0 0
18.074 0 0
18.074 0 0
18.1709 0 0
18.1709 0 0
18.2678 0 0
18.2678 0 0
18.3647 0 0
18.3647 0 0
18.4617 0 0
18.4617 0 0
18.5586 0 0
18.5586 0 0
18.6555 0 0
18.6555 0 0
18.7524 0 0
18.7524 0 0
18.8494 0 0
18.8494 0 0
18.9463 0 0
18.9463 0 0
19.0432 0 0
19.0432 0 0
19.1401 0 0
19.1401 0 0
19.2371 0 0
19.2371 0 0
19.334 0 0
19.334 0 0
19.4309 0 0
19.4309 0 0
19.5278 0 0
19.5278 0 0
19.6248 0 0
19.6248 0 0
19.7217 0 0
19.7217 0 0
19.8186 0 0
19.8186 0 0
19.9155 0 0
19.9155 0 0
20.0125 0 0
20.0125 0 0
20.1094 0 0
20.1094 0 0
20.2063 0 0
20.2063 0 0
20.3032 0 0
20.3032 0 0
20.4001 0 0
20.4001 0 0
20.4971 0 0
20.4971 0 0
20.594 0 0
20.594 0 0
20.6909 0 0
20.6909 0 0
20.7878 0 0
20.7878 0 0
20.8848 0 0
20.8848 0 0
20.9817 0 0
20.9817 0 0
21.0786 0 0
21.0786 0 0
21.1755 0 0
21.1755 0 0
21.2725 0 0
21.2725 0 0
21.3694 0 0
21.3694 0 0
21.4663 0 0
21.4663 0 0
21.5632 0 0
21.5632 0 0
21.6602 0 0
21.6602 0 0
21.7571 0 0
21.7571 0 0
21.854 0 0
21.854 0 0
21.9509 0 0
21.9509 0 0
22.0479 0 0
22.0479 0 0
22.1448 0 0
22.1448 0 0
22.2417 0 0
22.2417 0 0
22.3386 0 0
22.3386 0 0
22.4355 0 0
22.4355 0 0
22.5325 0 0
22.5325 0 0
22.6294 0 0
22.6294 0 0
22.7263 0 0
22.7263 0 0
22.8232 0 0
22.8232 0 0
22.9202 0 0
22.9202 0 0
23.0171 0 0
23.0171 0 0
23.114 0 0
23.114 0 0
23.2109 0 0
23.2109 0 0
23.3079 0 0
23.3079 0 0
23.4048 0 0
23.4048 0 0
23.5017 0 0
23.5017 0 0
23.5986 0 0
23.5986 0 0
23.6956 0 0
23.6956 0 0
23.7925 0 0
23.7925 0 0
23.8894 0 0
23.8894 0 0
23.9863 0 0
23.9863 0 0
24.0833 0 0
24.0833 0 0
24.1802 0 0
24.1802 0 0
24.2771 0 0
24.2771 0 0
24.374 0 0
24.374 0 0
24.4709 0 0
24.4709 0 0
24.5679 0 0
24.5679 0 0
24.6648 0 0
24.6648 0 0
24.7617 0 0
24.7617 0 0
24.8586 0 0
24.8586 0 0
24.9556 0 0
24.9556 0 0
25.0525 0 0
25.0525 0 0
25.1494 0 0
25.1494 0 0
25.2463 0 0
25.2463 0 0
25.3433 0 0
25.3433 0 0
25.4402 0 0
25.4402 0 0
25.5371 0 0
25.5371 0 0
25.634 0 0
25.634 0 0
25.731 0 0
25.731 0 0
25.8279 0 0
25.8279 0 0
25.9248 0 0
25.9248 0 0
26.0217 0 0
26.0217 0 0
26.1187 0 0
26.1187 0 0
26.2156 0 0
26.2156 0 0
26.3125 0 0
26.3125 0 0
26.4094 0 0
26.4094 0 0
26.5063 0 0
26.5063 0 0
26.6033 0 0
26.6033 0 0
26.7002 0 0
26.7002 0 0
26.7971 0 0
26.7971 0 0
26.894 0 0
26.894 0 0
26.991 0 0
26.991 0 0
27.0879 0 0
27.0879 0 0
27.1848 0 0
27.1848 0 0
27.2817 0 0
27.2817 0 0
27.3787 0 0
27.3787 0 0
27.4756 0 0
27.4756 0 0
27.5725 0 0
27.5725 0 0
27.6694 0 0
27.6694 0 0
27.7664 0 0
27.7664 0 0
27.8633 0 0
27.8633 0 0
27.9602 0 0
27.9602 0 0
28.0571 0 0
28.0571 0 0
28.1541 0 0
28.1541 0 0
28.251 0 0
28.251 0 0
28.3479 0 0
28.3479 0 0
28.4448 0 0
28.4448 0 0
28.5417 0 0
28.5417 0 0
28.6387 0 0
28.6387 0 0
28.7356 0 0
28.7356 0 0
28.8325 0 0
28.8325 0 0
28.9294 0 0
28.9294 0 0
29.0264 0 0
29.0264 0 0
29.1233 0 0
29.1233 0 0
29.2202 0 0
29.2202 0 0
29.3171 0 0
29.3171 0 0
29.4141 0 0
29.4141 0 0
29.511 0 0
29.511 0 0
29.6079 0 0
29.6079 0 0
29.7048 0 0
29.7048 0 0
29.8018 0 0
29.8018 0 0
29.8987 0 0
29.8987 0 0
29.9956 0 0
29.9956 0 0
30.0925 0 0
30.0925 0 0
30.1895 0 0
30.1895 0 0
30.2864 0 0
30.2864 0 0
30.3833 0 0
30.3833 0 0
30.4802 0 0
30.4802 0 0
30.5771 0 0
30.5771 0 0
30.6741 0 0
30.6741 0 0
30.771 0 0
30.771 0 0
30.8679 0 0
30.8679 0 0
30.9648 0 0
30.9648 0 0
31.0618 0 0
31.0618 0 0
31.1587 0 0
31.1587 0 0
31.2556 0 0
31.2556 0 0
31.3525 0 0
31.3525 0 0
31.4495 0 0
31.4495 0 0
31.5464 0 0
31.5464 0 0
31.6433 0 0
31.6433 0 0
31.7402 0 0
31.7402 0 0
31.8372 0 0
31.8372 0 0
31.9341 0 0
31.9341 0 0
32.031 0 0
32.031 0 0
32.1279 0 0
32.1279 0 0
32.2249 0 0
32.2249 0 0
32.3218 0 0
32.3218 0 0
32.4187 0 0
32.4187 0 0
32.5156 0 0
32.5156 0 0
32.6125 0 0
32.6125 0 0
32.7095 0 0
32.7095 0 0
32.8064 0 0
32.8064 0 0
32.9033 0 0
32.9033 0 0
33.0002 0 0
33.0002 0 0
33.0972 0 0
33.0972 0 0
33.1941 0 0
33.1941 0 0
33.291 0 0
33.291 0 0
33.3879 0 0
33.3879 0 0
33.4849 0 0
33.4849 0 0
33.5818 0 0
33.5818 0 0
33.6787 0 0
33.6787 0 0
33.7756 0 0
33.7756 0 0
33.8726 0 0
33.8726 0 0
33.9695 0 0
33.9695 0 0
34.0664 0 0
34.0664 0 0
34.1633 0 0
34.1633 0 0
34.2603 0 0
34.2603 0 0
34.3572 0 0
34.3572 0 0
34.4541 0 0
34.4541 0 0
34.551 0 0
34.551 0 0
34.6479 0 0
34.6479 0 0
34.7449 0 0
34.7449 0 0
34.8418 0 0
34.8418 0 0
34.9387 0 0
34.9387 0 0
35.0356 0 0
35.0356 0 0
35.1326 0 0
35.1326 0 0
35.2295 0 0
35.2295 0 0
35.3264 0 0
35.3264 0 0
35.4233 0 0
35.4233 0 0
35.5203 0 0
35.5203 0 0
35.6172 0 0
35.6172 0 0
35.7141 0 0
35.7141 0 0
35.811 0 0
35.811 0 0
35.908 0 0
35.908 0 0
36.0049 0 0
36.0049 0 0
36.1018 0 0
36.1018 0 0
36.1987 0 0
36.1987 0 0
36.2957 0 0
36.2957 0 0
36.3926 0 0
36.3926 0 0
36.4895 0 0
36.4895 0 0
36.5864 0 0
36.5864 0 0
36.6833 0 0
36.6833 0 0
36.7803 0 0
36.7803 0 0
36.8772 0 0
36.8772 0 0
36.9741 0 0
36.9741 0 0
37.071 0 0
37.071 0 0
37.168 0 0
37.168 0 0
37.2649 0 0
37.2649 0 0
37.3618 0 0
37.3618 0 0
37.4587 0 0
37.4587 0 0
37.5557 0 0
37.5557 0 0
37.6526 0 0
37.6526 0 0
37.7495 0 0
37.7495 0 0
37.8464 0 0
37.8464 0 0
37.9434 0 0
37.9434 0 0
38.0403 0 0
38.0403 0 0
38.1372 0 0
38.1372 0 0
38.2341 0 0
38.2341 0 0
38.3311 0 0
38.3311 0 0
38.428 0 0
38.428 0 0
38.5249 0 0
38.5249 0 0
38.6218 0 0
38.6218 0 0
38.7188 0 0
38.7188 0 0
38.8157 0 0
38.8157 0 0
38.9126 0 0
38.9126 0 0
39.0095 0 0
39.0095 0 0
39.1064 0 0
39.1064 0 0
39.2034 0 0
39.2034 0 0
39.3003 0 0
39.3003 0 0
39.3972 0 0
39.3972 0 0
39.4941 0 0
39.4941 0 0
39.5911 0 0
39.5911 0 0
39.688 0 0
39.688 0 0
39.7849 0 0
39.7849 0 0
39.8818 0 0
39.8818 0 0
39.9788 0 0
39.9788 0 0
40.0757 0 0
40.0757 0 0
40.1726 0 0
40.1726 0 0
40.2695 0 0
40.2695 0 0
40.3665 0 0
40.3665 0 0
40.4634 0 0
40.4634 0 0
40.5603 0 0
40.5603 0 0
40.6572 0 0
40.6572 0 0
40.7542 0 0
40.7542 0 0
40.8511 0 0
40.8511 0 0
40.948 0 0
40.948 0 0
41.0449 0 0
41.0449 0 0
41.1418 0 0
41.1418 0 0
41.2388 0 0
41.2388 0 0
41.3357 0 0
41.3357 0 0
41.4326 0 0
41.4326 0 0
41.5295 0 0
41.5295 0 0
[...]
POINT_DATA 4096
SCALARS solution_0 double 1
LOOKUP_TABLE default
5.2867e+06 5.17716e+06 5.17716e+06 5.08481e+06 5.08481e+06 5.00615e+06 5.00615e+06 4.93851e+06 4.93851e+06 4.87983e+06 4.87983e+06 4.82847e+06 4.82847e+06 4.78314e+06 4.78314e+06 4.7428e+06 4.7428e+06 4.70661e+06 4.70661e+06 4.67389e+06 4.67389e+06 4.64408e+06 4.64408e+06 4.61672e+06 4.61672e+06 4.59142e+06 4.59142e+06 4.56786e+06 4.56786e+06 4.54576e+06 4.54576e+06 4.5249e+06 4.5249e+06 4.5051e+06 4.5051e+06 4.48617e+06 4.48617e+06 4.46799e+06 4.46799e+06 4.45044e+06 4.45044e+06 4.43341e+06 4.43341e+06 4.41681e+06 4.41681e+06 4.40058e+06 4.40058e+06 4.38464e+06 4.38464e+06 4.36895e+06 4.36895e+06 4.35344e+06 4.35344e+06 4.33809e+06 4.33809e+06 4.32286e+06 4.32286e+06 4.30771e+06 4.30771e+06 4.29262e+06 4.29262e+06 4.27757e+06 4.27757e+06 4.26254e+06 4.26254e+06 4.2475e+06 4.2475e+06 4.23246e+06 4.23246e+06 4.21739e+06 4.21739e+06 4.20229e+06 4.20229e+06 4.18714e+06 4.18714e+06 4.17194e+06 4.17194e+06 4.15669e+06 4.15669e+06 4.14138e+06 4.14138e+06 4.12601e+06 4.12601e+06 4.11057e+06 4.11057e+06 4.09507e+06 4.09507e+06 4.07949e+06 4.07949e+06 4.06385e+06 4.06385e+06 4.04813e+06 4.04813e+06 4.03235e+06 4.03235e+06 4.0165e+06 4.0165e+06 4.00058e+06 4.00058e+06 3.98459e+06 3.98459e+06 3.96854e+06 3.96854e+06 3.95243e+06 3.95243e+06 3.93625e+06 3.93625e+06 3.92002e+06 3.92002e+06 3.90373e+06 3.90373e+06 3.88738e+06 3.88738e+06 3.87098e+06 3.87098e+06 3.85454e+06 3.85454e+06 3.83804e+06 3.83804e+06 3.8215e+06 3.8215e+06 3.80492e+06 3.80492e+06 3.78831e+06 3.78831e+06 3.77165e+06 3.77165e+06 3.75496e+06 3.75496e+06 3.73824e+06 3.73824e+06 3.72149e+06 3.72149e+06 3.70472e+06 3.70472e+06 3.68792e+06 3.68792e+06 3.6711e+06 3.6711e+06 3.65427e+06 3.65427e+06 3.63742e+06 3.63742e+06 3.62056e+06 3.62056e+06 3.60368e+06 3.60368e+06 3.5868e+06 3.5868e+06 3.56991e+06 3.56991e+06 3.55302e+06 3.55302e+06 3.53613e+06 3.53613e+06 3.51924e+06 3.51924e+06 3.50236e+06 3.50236e+06 3.48548e+06 3.48548e+06 3.46861e+06 3.46861e+06 3.45175e+06 3.45175e+06 3.4349e+06 3.4349e+06 3.41806e+06 3.41806e+06 3.40124e+06 3.40124e+06 3.38444e+06 3.38444e+06 3.36766e+06 3.36766e+06 3.3509e+06 3.3509e+06 3.33417e+06 3.33417e+06 3.31746e+06 3.31746e+06 3.30077e+06 3.30077e+06 3.28412e+06 3.28412e+06 3.26749e+06 3.26749e+06 3.2509e+06 3.2509e+06 3.23434e+06 3.23434e+06 3.21781e+06 3.21781e+06 3.20132e+06 3.20132e+06 3.18487e+06 3.18487e+06 3.16845e+06 3.16845e+06 3.15208e+06 3.15208e+06 3.13574e+06 3.13574e+06 3.11945e+06 3.11945e+06 3.1032e+06 3.1032e+06 3.087e+06 3.087e+06 3.07084e+06 3.07084e+06 3.05473e+06 3.05473e+06 3.03866e+06 3.03866e+06 3.02264e+06 3.02264e+06 3.00668e+06 3.00668e+06 2.99076e+06 2.99076e+06 2.9749e+06 2.9749e+06 2.95908e+06 2.95908e+06 2.94332e+06 2.94332e+06 2.92762e+06 2.92762e+06 2.91196e+06 2.91196e+06 2.89637e+06 2.89637e+06 2.88083e+06 2.88083e+06 2.86534e+06 2.86534e+06 2.84991e+06 2.84991e+06 2.83454e+06 2.83454e+06 2.81923e+06 2.81923e+06 2.80398e+06 2.80398e+06 2.78879e+06 2.78879e+06 2.77365e+06 2.77365e+06 2.75858e+06 2.75858e+06 2.74357e+06 2.74357e+06 2.72862e+06 2.72862e+06 2.71373e+06 2.71373e+06 2.6989e+06 2.6989e+06 2.68414e+06 2.68414e+06 2.66944e+06 2.66944e+06 2.6548e+06 2.6548e+06 2.64023e+06 2.64023e+06 2.62572e+06 2.62572e+06 2.61127e+06 2.61127e+06 2.59689e+06 2.59689e+06 2.58257e+06 2.58257e+06 2.56832e+06 2.56832e+06 2.55413e+06 2.55413e+06 2.54001e+06 2.54001e+06 2.52595e+06 2.52595e+06 2.51196e+06 2.51196e+06 2.49804e+06 2.49804e+06 2.48418e+06 2.48418e+06 2.47038e+06 2.47038e+06 2.45666e+06 2.45666e+06 2.443e+06 2.443e+06 2.4294e+06 2.4294e+06 2.41587e+06 2.41587e+06 2.40241e+06 2.40241e+06 2.38901e+06 2.38901e+06 2.37569e+06 2.37569e+06 2.36242e+06 2.36242e+06 2.34923e+06 2.34923e+06 2.3361e+06 2.3361e+06 2.32303e+06 2.32303e+06 2.31004e+06 2.31004e+06 2.29711e+06 2.29711e+06 2.28424e+06 2.28424e+06 2.27145e+06 2.27145e+06 2.25872e+06 2.25872e+06 2.24605e+06 2.24605e+06 2.23345e+06 2.23345e+06 2.22092e+06 2.22092e+06 2.20845e+06 2.20845e+06 2.19605e+06 2.19605e+06 2.18372e+06 2.18372e+06 2.17145e+06 2.17145e+06 2.15925e+06 2.15925e+06 2.14711e+06 2.14711e+06 2.13504e+06 2.13504e+06 2.12303e+06 2.12303e+06 2.11109e+06 2.11109e+06 2.09921e+06 2.09921e+06 2.0874e+06 2.0874e+06 2.07565e+06 2.07565e+06 2.06396e+06 2.06396e+06 2.05234e+06 2.05234e+06 2.04079e+06 2.04079e+06 2.0293e+06 2.0293e+06 2.01787e+06 2.01787e+06 2.0065e+06 2.0065e+06 1.9952e+06 1.9952e+06 1.98396e+06 1.98396e+06 1.97279e+06 1.97279e+06 1.96167e+06 1.96167e+06 1.95062e+06 1.95062e+06 1.93964e+06 1.93964e+06 1.92871e+06 1.92871e+06 1.91784e+06 1.91784e+06 1.90704e+06 1.90704e+06 1.8963e+06 1.8963e+06 1.88562e+06 1.88562e+06 1.875e+06 1.875e+06 1.86444e+06 1.86444e+06 1.85394e+06 1.85394e+06 1.8435e+06 1.8435e+06 1.83313e+06 1.83313e+06 1.82281e+06 1.82281e+06 1.81255e+06 1.81255e+06 1.80235e+06 1.80235e+06 1.79221e+06 1.79221e+06 1.78212e+06 1.78212e+06 1.7721e+06 1.7721e+06 1.76213e+06 1.76213e+06 1.75222e+06 1.75222e+06 1.74237e+06 1.74237e+06 1.73258e+06 1.73258e+06 1.72284e+06 1.72284e+06 1.71316e+06 1.71316e+06 1.70354e+06 1.70354e+06 1.69397e+06 1.69397e+06 1.68446e+06 1.68446e+06 1.67501e+06 1.67501e+06 1.66561e+06 1.66561e+06 1.65626e+06 1.65626e+06 1.64697e+06 1.64697e+06 1.63774e+06 1.63774e+06 1.62856e+06 1.62856e+06 1.61943e+06 1.61943e+06 1.61036e+06 1.61036e+06 1.60134e+06 1.60134e+06 1.59238e+06 1.59238e+06 1.58346e+06 1.58346e+06 1.5746e+06 1.5746e+06 1.5658e+06 1.5658e+06 1.55704e+06 1.55704e+06 1.54834e+06 1.54834e+06 1.53969e+06 1.53969e+06 1.53109e+06 1.53109e+06 1.52254e+06 1.52254e+06 1.51404e+06 1.51404e+06 1.50559e+06 1.50559e+06 1.49719e+06 1.49719e+06 1.48885e+06 1.48885e+06 1.48055e+06 1.48055e+06 1.4723e+06 1.4723e+06 1.4641e+06 1.4641e+06 1.45595e+06 1.45595e+06 1.44785e+06 1.44785e+06 1.43979e+06 1.43979e+06 1.43179e+06 1.43179e+06 1.42383e+06 1.42383e+06 1.41592e+06 1.41592e+06 1.40806e+06 1.40806e+06 1.40024e+06 1.40024e+06 1.39247e+06 1.39247e+06 1.38475e+06 1.38475e+06 1.37707e+06 1.37707e+06 1.36944e+06 1.36944e+06 1.36186e+06 1.36186e+06 1.35432e+06 1.35432e+06 1.34682e+06 1.34682e+06 1.33937e+06 1.33937e+06 1.33197e+06 1.33197e+06 1.32461e+06 1.32461e+06 1.31729e+06 1.31729e+06 1.31002e+06 1.31002e+06 1.30279e+06 1.30279e+06 1.2956e+06 1.2956e+06 1.28846e+06 1.28846e+06 1.28136e+06 1.28136e+06 1.2743e+06 1.2743e+06 1.26729e+06 1.26729e+06 1.26031e+06 1.26031e+06 1.25338e+06 1.25338e+06 1.24649e+06 1.24649e+06 1.23964e+06 1.23964e+06 1.23283e+06 1.23283e+06 1.22606e+06 1.22606e+06 1.21934e+06 1.21934e+06 1.21265e+06 1.21265e+06 1.206e+06 1.206e+06 1.19939e+06 1.19939e+06 1.19283e+06 1.19283e+06 1.1863e+06 1.1863e+06 1.17981e+06 1.17981e+06 1.17336e+06 1.17336e+06 1.16694e+06 1.16694e+06 1.16057e+06 1.16057e+06 1.15423e+06 1.15423e+06 1.14793e+06 1.14793e+06 1.14167e+06 1.14167e+06 1.13545e+06 1.13545e+06 1.12926e+06 1.12926e+06 1.12311e+06 1.12311e+06 1.117e+06 1.117e+06 1.11092e+06 1.11092e+06 1.10488e+06 1.10488e+06 1.09888e+06 1.09888e+06 1.09291e+06 1.09291e+06 1.08697e+06 1.08697e+06 1.08108e+06 1.08108e+06 1.07521e+06 1.07521e+06 1.06938e+06 1.06938e+06 1.06359e+06 1.06359e+06 1.05783e+06 1.05783e+06 1.0521e+06 1.0521e+06 1.04641e+06 1.04641e+06 1.04075e+06 1.04075e+06 1.03513e+06 1.03513e+06 1.02954e+06 1.02954e+06 1.02398e+06 1.02398e+06 1.01845e+06 1.01845e+06 1.01296e+06 1.01296e+06 1.0075e+06 1.0075e+06 1.00207e+06 1.00207e+06 996676 996676 991312 991312 985979 985979 980677 980677 975407 975407 970168 970168 964959 964959 959781 959781 954633 954633 949515 949515 944428 944428 939370 939370 934342 934342 929343 929343 924373 924373 919432 919432 914521 914521 909638 909638 904783 904783 899956 899956 895158 895158 890387 890387 885645 885645 880929 880929 876241 876241 871581 871581 866947 866947 862340 862340 857760 857760 853206 853206 848678 848678 844177 844177 839702 839702 835252 835252 830828 830828 826429 826429 822056 822056 817708 817708 813384 813384 809086 809086 804812 804812 800563 800563 796337 796337 792136 792136 787960 787960 783806 783806 779677 779677 775571 775571 771488 771488 767429 767429 763392 763392 759379 759379 755388 755388 751420 751420 747474 747474 743551 743551 739650 739650 735771 735771 731913 731913 728078 728078 724264 724264 720471 720471 716700 716700 712950 712950 709221 709221 705513 705513 701826 701826 698159 698159 694512 694512 690886 690886 687281 687281 683695 683695 680129 680129 676584 676584 673057 673057 669551 669551 666064 666064 662596 662596 659147 659147 655717 655717 652307 652307 648915 648915 645542 645542 642187 642187 638851 638851 635533 635533 632233 632233 628952 628952 625688 625688 622443 622443 619215 619215 616004 616004 612811 612811 609636 609636 606478 606478 603337 603337 600213 600213 597106 597106 594016 594016 590942 590942 587886 587886 584846 584846 581822 581822 578814 578814 575823 575823 572848 572848 569888 569888 566945 566945 564018 564018 561106 561106 558209 558209 555329 555329 552463 552463 549613 549613 546778 546778 543958 543958 541154 541154 538364 538364 535588 535588 532828 532828 530082 530082 527351 527351 524634 524634 521932 521932 519243 519243 516569 516569 513909 513909 511263 511263 508631 508631 506013 506013 503408 503408 500817 500817 498240 498240 495676 495676 493125 493125 490588 490588 488063 488063 485552 485552 483054 483054 480569 480569 478097 478097 475638 475638 473191 473191 470757 470757 468336 468336 465927 465927 463530 463530 461146 461146 458774 458774 456414 456414 454066 454066 451730 451730 449407 449407 447095 447095 444794 444794 442506 442506 440229 440229 437964 437964 435710 435710 433468 433468 431237 431237 429017 429017 426809 426809 424611 424611 422425 422425 420250 420250 418086 418086 415932 415932 413790 413790 411658 411658 409537 409537 407426 407426 405326 405326 403237 403237 401158 401158 399089 399089 397030 397030 394982 394982 392944 392944 390916 390916 388898 388898 386890 386890 384892 384892 382904 382904 380926 380926 378957 378957 376998 376998 375049 375049 373109 373109 371179 371179 369258 369258 367347 367347 365445 365445 363552 363552 361669 361669 359794 359794 357929 357929 356073 356073 354226 354226 352388 352388 350558 350558 348738 348738 346926 346926 345123 345123 343329 343329 341543 341543 339766 339766 337998 337998 336238 336238 334486 334486 332743 332743 331008 331008 329282 329282 327563 327563 325853 325853 324151 324151 322457 322457 320771 320771 319093 319093 317424 317424 315762 315762 314107 314107 312461 312461 310822 310822 309192 309192 307568 307568 305953 305953 304345 304345 302744 302744 301151 301151 299566 299566 297988 297988 296417 296417 294854 294854 293298 293298 291749 291749 290207 290207 288673 288673 287145 287145 285625 285625 284112 284112 282605 282605 281106 281106 279614 279614 278128 278128 276650 276650 275178 275178 273712 273712 272254 272254 270802 270802 269357 269357 267919 267919 266487 266487 265062 265062 263643 263643 262230 262230 260824 260824 259425 259425 258031 258031 256644 256644 255264 255264 253889 253889 252521 252521 251159 251159 249803 249803 248453 248453 247109 247109 245772 245772 244440 244440 243114 243114 241794 241794 240481 240481 239173 239173 237870 237870 236574 236574 235283 235283 233998 233998 232719 232719 231446 231446 230178 230178 228916 228916 227659 227659 226408 226408 225162 225162 223922 223922 222688 222688 221459 221459 220235 220235 219016 219016 217803 217803 216596 216596 215393 215393 214196 214196 213004 213004 211817 211817 210636 210636 209459 209459 208288 208288 207122 207122 205960 205960 204804 204804 203653 203653 202507 202507 201366 201366 200230 200230 199098 199098 197972 197972 196850 196850 195733 195733 194621 194621 193514 193514 192411 192411 191314 191314 190220 190220 189132 189132 188048 188048 186969 186969 185894 185894 184824 184824 183759 183759 182698 182698 181642 181642 180590 180590 179542 179542 178499 178499 177461 177461 176426 176426 175396 175396 174371 174371 173350 173350 172333 172333 171320 171320 170311 170311 169307 169307 168307 168307 167311 167311 166320 166320 165332 165332 164349 164349 163369 163369 162394 162394 161423 161423 160456 160456 159493 159493 158533 158533 157578 157578 156627 156627 155680 155680 154736 154736 153797 153797 152861 152861 151929 151929 151001 151001 150077 150077 149157 149157 148240 148240 147328 147328 146418 146418 145513 145513 144611 144611 143713 143713 142819 142819 141928 141928 141041 141041 140158 140158 139278 139278 138402 138402 137529 137529 136660 136660 135794 135794 134932 134932 134073 134073 133218 133218 132366 132366 131518 131518 130673 130673 129831 129831 128993 128993 128158 128158 127327 127327 126498 126498 125674 125674 124852 124852 124034 124034 123219 123219 122407 122407 121598 121598 120793 120793 119991 119991 119192 119192 118396 118396 117604 117604 116814 116814 116028 116028 115245 115245 114464 114464 113687 113687 112913 112913 112142 112142 111375 111375 110610 110610 109848 109848 109089 109089 108333 108333 107580 107580 106830 106830 106083 106083 105338 105338 104597 104597 103859 103859 103123 103123 102391 102391 101661 101661 100934 100934 100210 100210 99488.3 99488.3 98769.8 98769.8 98054 98054 97341 97341 96630.8 96630.8 95923.3 95923.3 95218.5 95218.5 94516.4 94516.4 93817.1 93817.1 93120.4 93120.4 92426.4 92426.4 91735.1 91735.1 91046.4 91046.4 90360.4 90360.4 89677 89677 88996.2 88996.2 88318 88318 87642.5 87642.5 86969.4 86969.4 86299 86299 85631.1 85631.1 84965.8 84965.8 84303 84303 83642.7 83642.7 82984.9 82984.9 82329.6 82329.6 81676.8 81676.8 81026.5 81026.5 80378.6 80378.6 79733.2 79733.2 79090.2 79090.2 78449.6 78449.6 77811.5 77811.5 77175.8 77175.8 76542.4 76542.4 75911.5 75911.5 75282.9 75282.9 74656.7 74656.7 74032.8 74032.8 73411.3 73411.3 72792.1 72792.1 72175.2 72175.2 71560.7 71560.7 70948.4 70948.4 70338.4 70338.4 69730.7 69730.7 69125.3 69125.3 68522.1 68522.1 67921.2 67921.2 67322.5 67322.5 66726 66726 66131.8 66131.8 65539.7 65539.7 64949.9 64949.9 64362.2 64362.2 63776.7 63776.7 63193.4 63193.4 62612.2 62612.2 62033.2 62033.2 61456.3 61456.3 60881.6 60881.6 60308.9 60308.9 59738.4 59738.4 59170 59170 58603.6 58603.6 58039.4 58039.4 57477.2 57477.2 56917.1 56917.1 56359 56359 55803 55803 55249 55249 54697.1 54697.1 54147.1 54147.1 53599.2 53599.2 53053.2 53053.2 52509.3 52509.3 51967.3 51967.3 51427.3 51427.3 50889.3 50889.3 50353.3 50353.3 49819.1 49819.1 49287 49287 48756.7 48756.7 48228.4 48228.4 47702 47702 47177.5 47177.5 46654.8 46654.8 46134.1 46134.1 45615.3 45615.3 45098.3 45098.3 44583.2 44583.2 44070 44070 43558.6 43558.6 43049 43049 42541.3 42541.3 42035.4 42035.4 41531.3 41531.3 41029 41029 40528.5 40528.5 40029.8 40029.8 39532.9 39532.9 39037.8 39037.8 38544.5 38544.5 38052.9 38052.9 37563 37563 37074.9 37074.9 36588.6 36588.6 36104 36104 35621.1 35621.1 35139.9 35139.9 34660.5 34660.5 34182.7 34182.7 33706.6 33706.6 33232.3 33232.3 32759.6 32759.6 32288.6 32288.6 31819.2 31819.2 31351.5 31351.5 30885.5 30885.5 30421.1 30421.1 29958.3 29958.3 29497.2 29497.2 29037.7 29037.7 28579.9 28579.9 28123.6 28123.6 27668.9 27668.9 27215.9 27215.9 26764.4 26764.4 26314.5 26314.5 25866.2 25866.2 25419.5 25419.5 24974.3 24974.3 24530.7 24530.7 24088.7 24088.7 23648.2 23648.2 23209.2 23209.2 22771.8 22771.8 22335.9 22335.9 21901.5 21901.5 21468.6 21468.6 21037.2 21037.2 20607.4 20607.4 20179 20179 19752.1 19752.1 19326.7 19326.7 18902.8 18902.8 18480.4 18480.4 18059.4 18059.4 17639.9 17639.9 17221.8 17221.8 16805.2 16805.2 16390 16390 15976.2 15976.2 15563.9 15563.9 15153 15153 14743.6 14743.6 14335.5 14335.5 13928.8 13928.8 13523.6 13523.6 13119.7 13119.7 12717.2 12717.2 12316.1 12316.1 11916.4 11916.4 11518.1 11518.1 11121.1 11121.1 10725.5 10725.5 10331.2 10331.2 9938.34 9938.34 9546.78 9546.78 9156.56 9156.56 8767.67 8767.67 8380.11 8380.11 7993.87 7993.87 7608.95 7608.95 7225.35 7225.35 6843.05 6843.05 6462.05 6462.05 6082.35 6082.35 5703.94 5703.94 5326.82 5326.82 4950.98 4950.98 4576.42 4576.42 4203.13 4203.13 3831.1 3831.1 3460.34 3460.34 3090.83 3090.83 2722.57 2722.57 2355.56 2355.56 1989.79 1989.79 1625.26 1625.26 1261.96 1261.96 899.885 899.885 539.032 539.032 179.396 179.396 -179.027 -179.027 -536.243 -536.243 -892.257 -892.257 -1247.07 -1247.07 -1600.69 -1600.69 -1953.13 -1953.13 -2304.38 -2304.38 -2654.45 -2654.45 -3003.34 -3003.34 -3351.07 -3351.07 -3697.63 -3697.63 -4043.03 -4043.03 -4387.27 -4387.27 -4730.36 -4730.36 -5072.31 -5072.31 -5413.11 -5413.11 -5752.77 -5752.77 -6091.3 -6091.3 -6428.7 -6428.7 -6764.97 -6764.97 -7100.12 -7100.12 -7434.16 -7434.16 -7767.08 -7767.08 -8098.9 -8098.9 -8429.61 -8429.61 -8759.22 -8759.22 -9087.74 -9087.74 -9415.16 -9415.16 -9741.5 -9741.5 -10066.8 -10066.8 -10390.9 -10390.9 -10714 -10714 -11036.1 -11036.1 -11357 -11357 -11677 -11677 -11995.8 -11995.8 -12313.6 -12313.6 -12630.4 -12630.4 -12946.1 -12946.1 -13260.7 -13260.7 -13574.3 -13574.3 -13886.9 -13886.9 -14198.5 -14198.5 -14509 -14509 -14818.5 -14818.5 -15127 -15127 -15434.5 -15434.5 -15741 -15741 -16046.4 -16046.4 -16350.9 -16350.9 -16654.4 -16654.4 -16956.8 -16956.8 -17258.3 -17258.3 -17558.8 -17558.8 -17858.3 -17858.3 -18156.8 -18156.8 -18454.4 -18454.4 -18750.9 -18750.9 -19046.5 -19046.5 -19341.2 -19341.2 -19634.8 -19634.8 -19927.5 -19927.5 -20219.3 -20219.3 -20510.1 -20510.1 -20799.9 -20799.9 -21088.8 -21088.8 -21376.7 -21376.7 -21663.7 -21663.7 -21949.8 -21949.8 -22234.9 -22234.9 -22519.1 -22519.1 -22802.4 -22802.4 -23084.7 -23084.7 -23366.2 -23366.2 -23646.7 -23646.7 -23926.3 -23926.3 -24204.9 -24204.9 -24482.7 -24482.7 -24759.6 -24759.6 -25035.5 -25035.5 -25310.6 -25310.6 -25584.8 -25584.8 -25858.1 -25858.1 -26130.5 -26130.5 -26402 -26402 -26672.6 -26672.6 -26942.4 -26942.4 -27211.2 -27211.2 -27479.3 -27479.3 -27746.4 -27746.4 -28012.7 -28012.7 -28278.2 -28278.2 -28542.7 -28542.7 -28806.5 -28806.5 -29069.4 -29069.4 -29331.4 -29331.4 -29592.7 -29592.7 -29853 -29853 -30112.6 -30112.6 -30371.3 -30371.3 -30629.2 -30629.2 -30886.3 -30886.3 -31142.6 -31142.6 -31398 -31398 -31652.7 -31652.7 -31906.5 -31906.5 -32159.5 -32159.5 -32411.8 -32411.8 -32663.2 -32663.2 -32913.8 -32913.8 -33163.7 -33163.7 -33412.7 -33412.7 -33661 -33661 -33908.5 -33908.5 -34155.2 -34155.2 -34401.1 -34401.1 -34646.2 -34646.2 -34890.5 -34890.5 -35134.1 -35134.1 -35376.9 -35376.9 -35618.9 -35618.9 -35860.2 -35860.2 -36100.7 -36100.7 -36340.4 -36340.4 -36579.4 -36579.4 -36817.6 -36817.6 -37055 -37055 -37291.7 -37291.7 -37527.6 -37527.6 -37762.8 -37762.8 -37997.2 -37997.2 -38230.9 -38230.9 -38463.8 -38463.8 -38696 -38696 -38927.5 -38927.5 -39158.2 -39158.2 -39388.2 -39388.2 -39617.4 -39617.4 -39846 -39846 -40073.8 -40073.8 -40300.8 -40300.8 -40527.2 -40527.2 -40752.8 -40752.8 -40977.8 -40977.8 -41202 -41202 -41425.5 -41425.5 -41648.3 -41648.3 -41870.4 -41870.4 -42091.7 -42091.7 -42312.4 -42312.4 -42532.4 -42532.4 -42751.7 -42751.7 -42970.3 -42970.3 -43188.3 -43188.3 -43405.5 -43405.5 -43622.1 -43622.1 -43837.9 -43837.9 -44053.1 -44053.1 -44267.6 -44267.6 -44481.5 -44481.5 -44694.7 -44694.7 -44907.2 -44907.2 -45119 -45119 -45330.2 -45330.2 -45540.7 -45540.7 -45750.5 -45750.5 -45959.7 -45959.7 -46168.2 -46168.2 -46376.1 -46376.1 -46583.4 -46583.4 -46789.9 -46789.9 -46995.9 -46995.9 -47201.2 -47201.2 -47405.8 -47405.8 -47609.8 -47609.8 -47813.2 -47813.2 -48016 -48016 -48218.1 -48218.1 -48419.5 -48419.5 -48620.4 -48620.4 -48820.6 -48820.6 -49020.2 -49020.2 -49219.2 -49219.2 -49417.5 -49417.5 -49615.3 -49615.3 -49812.4 -49812.4 -50008.9 -50008.9 -50204.8 -50204.8 -50400.1 -50400.1 -50594.7 -50594.7 -50788.8 -50788.8 -50982.3 -50982.3 -51175.1 -51175.1 -51367.4 -51367.4 -51559.1 -51559.1 -51750.2 -51750.2 -51940.6 -51940.6 -52130.5 -52130.5 -52319.8 -52319.8 -52508.5 -52508.5 -52696.7 -52696.7 -52884.2 -52884.2 -53071.2 -53071.2 -53257.5 -53257.5 -53443.4 -53443.4 -53628.6 -53628.6 -53813.2 -53813.2 -53997.3 -53997.3 -54180.8 -54180.8 -54363.8 -54363.8 -54546.2 -54546.2 -54728 -54728 -54909.2 -54909.2 -55089.9 -55089.9 -55270.1 -55270.1 -55449.6 -55449.6 -5