# vtk DataFile Version 3.0
#This file was generated by the deal.II library on 2020/9/6 at 2:50:18
ASCII
DATASET UNSTRUCTURED_GRID

POINTS 4096 double
1.5 0 0
1.59692 0 0
1.59692 0 0
1.69385 0 0
1.69385 0 0
1.79077 0 0
1.79077 0 0
1.8877 0 0
1.8877 0 0
1.98462 0 0
1.98462 0 0
2.08154 0 0
2.08154 0 0
2.17847 0 0
2.17847 0 0
2.27539 0 0
2.27539 0 0
2.37231 0 0
2.37231 0 0
2.46924 0 0
2.46924 0 0
2.56616 0 0
2.56616 0 0
2.66309 0 0
2.66309 0 0
2.76001 0 0
2.76001 0 0
2.85693 0 0
2.85693 0 0
2.95386 0 0
2.95386 0 0
3.05078 0 0
3.05078 0 0
3.14771 0 0
3.14771 0 0
3.24463 0 0
3.24463 0 0
3.34155 0 0
3.34155 0 0
3.43848 0 0
3.43848 0 0
3.5354 0 0
3.5354 0 0
3.63232 0 0
3.63232 0 0
3.72925 0 0
3.72925 0 0
3.82617 0 0
3.82617 0 0
3.9231 0 0
3.9231 0 0
4.02002 0 0
4.02002 0 0
4.11694 0 0
4.11694 0 0
4.21387 0 0
4.21387 0 0
4.31079 0 0
4.31079 0 0
4.40771 0 0
4.40771 0 0
4.50464 0 0
4.50464 0 0
4.60156 0 0
4.60156 0 0
4.69849 0 0
4.69849 0 0
4.79541 0 0
4.79541 0 0
4.89233 0 0
4.89233 0 0
4.98926 0 0
4.98926 0 0
5.08618 0 0
5.08618 0 0
5.18311 0 0
5.18311 0 0
5.28003 0 0
5.28003 0 0
5.37695 0 0
5.37695 0 0
5.47388 0 0
5.47388 0 0
5.5708 0 0
5.5708 0 0
5.66772 0 0
5.66772 0 0
5.76465 0 0
5.76465 0 0
5.86157 0 0
5.86157 0 0
5.9585 0 0
5.9585 0 0
6.05542 0 0
6.05542 0 0
6.15234 0 0
6.15234 0 0
6.24927 0 0
6.24927 0 0
6.34619 0 0
6.34619 0 0
6.44312 0 0
6.44312 0 0
6.54004 0 0
6.54004 0 0
6.63696 0 0
6.63696 0 0
6.73389 0 0
6.73389 0 0
6.83081 0 0
6.83081 0 0
6.92773 0 0
6.92773 0 0
7.02466 0 0
7.02466 0 0
7.12158 0 0
7.12158 0 0
7.21851 0 0
7.21851 0 0
7.31543 0 0
7.31543 0 0
7.41235 0 0
7.41235 0 0
7.50928 0 0
7.50928 0 0
7.6062 0 0
7.6062 0 0
7.70312 0 0
7.70312 0 0
7.80005 0 0
7.80005 0 0
7.89697 0 0
7.89697 0 0
7.9939 0 0
7.9939 0 0
8.09082 0 0
8.09082 0 0
8.18774 0 0
8.18774 0 0
8.28467 0 0
8.28467 0 0
8.38159 0 0
8.38159 0 0
8.47852 0 0
8.47852 0 0
8.57544 0 0
8.57544 0 0
8.67236 0 0
8.67236 0 0
8.76929 0 0
8.76929 0 0
8.86621 0 0
8.86621 0 0
8.96313 0 0
8.96313 0 0
9.06006 0 0
9.06006 0 0
9.15698 0 0
9.15698 0 0
9.25391 0 0
9.25391 0 0
9.35083 0 0
9.35083 0 0
9.44775 0 0
9.44775 0 0
9.54468 0 0
9.54468 0 0
9.6416 0 0
9.6416 0 0
9.73853 0 0
9.73853 0 0
9.83545 0 0
9.83545 0 0
9.93237 0 0
9.93237 0 0
10.0293 0 0
10.0293 0 0
10.1262 0 0
10.1262 0 0
10.2231 0 0
10.2231 0 0
10.3201 0 0
10.3201 0 0
10.417 0 0
10.417 0 0
10.5139 0 0
10.5139 0 0
10.6108 0 0
10.6108 0 0
10.7078 0 0
10.7078 0 0
10.8047 0 0
10.8047 0 0
10.9016 0 0
10.9016 0 0
10.9985 0 0
10.9985 0 0
11.0955 0 0
11.0955 0 0
11.1924 0 0
11.1924 0 0
11.2893 0 0
11.2893 0 0
11.3862 0 0
11.3862 0 0
11.4832 0 0
11.4832 0 0
11.5801 0 0
11.5801 0 0
11.677 0 0
11.677 0 0
11.7739 0 0
11.7739 0 0
11.8708 0 0
11.8708 0 0
11.9678 0 0
11.9678 0 0
12.0647 0 0
12.0647 0 0
12.1616 0 0
12.1616 0 0
12.2585 0 0
12.2585 0 0
12.3555 0 0
12.3555 0 0
12.4524 0 0
12.4524 0 0
12.5493 0 0
12.5493 0 0
12.6462 0 0
12.6462 0 0
12.7432 0 0
12.7432 0 0
12.8401 0 0
12.8401 0 0
12.937 0 0
12.937 0 0
13.0339 0 0
13.0339 0 0
13.1309 0 0
13.1309 0 0
13.2278 0 0
13.2278 0 0
13.3247 0 0
13.3247 0 0
13.4216 0 0
13.4216 0 0
13.5186 0 0
13.5186 0 0
13.6155 0 0
13.6155 0 0
13.7124 0 0
13.7124 0 0
13.8093 0 0
13.8093 0 0
13.9062 0 0
13.9062 0 0
14.0032 0 0
14.0032 0 0
14.1001 0 0
14.1001 0 0
14.197 0 0
14.197 0 0
14.2939 0 0
14.2939 0 0
14.3909 0 0
14.3909 0 0
14.4878 0 0
14.4878 0 0
14.5847 0 0
14.5847 0 0
14.6816 0 0
14.6816 0 0
14.7786 0 0
14.7786 0 0
14.8755 0 0
14.8755 0 0
14.9724 0 0
14.9724 0 0
15.0693 0 0
15.0693 0 0
15.1663 0 0
15.1663 0 0
15.2632 0 0
15.2632 0 0
15.3601 0 0
15.3601 0 0
15.457 0 0
15.457 0 0
15.554 0 0
15.554 0 0
15.6509 0 0
15.6509 0 0
15.7478 0 0
15.7478 0 0
15.8447 0 0
15.8447 0 0
15.9417 0 0
15.9417 0 0
16.0386 0 0
16.0386 0 0
16.1355 0 0
16.1355 0 0
16.2324 0 0
16.2324 0 0
16.3293 0 0
16.3293 0 0
16.4263 0 0
16.4263 0 0
16.5232 0 0
16.5232 0 0
16.6201 0 0
16.6201 0 0
16.717 0 0
16.717 0 0
16.814 0 0
16.814 0 0
16.9109 0 0
16.9109 0 0
17.0078 0 0
17.0078 0 0
17.1047 0 0
17.1047 0 0
17.2017 0 0
17.2017 0 0
17.2986 0 0
17.2986 0 0
17.3955 0 0
17.3955 0 0
17.4924 0 0
17.4924 0 0
17.5894 0 0
17.5894 0 0
17.6863 0 0
17.6863 0 0
17.7832 0 0
17.7832 0 0
17.8801 0 0
17.8801 0 0
17.9771 0 0
17.9771 0 0
18.074 0 0
18.074 0 0
18.1709 0 0
18.1709 0 0
18.2678 0 0
18.2678 0 0
18.3647 0 0
18.3647 0 0
18.4617 0 0
18.4617 0 0
18.5586 0 0
18.5586 0 0
18.6555 0 0
18.6555 0 0
18.7524 0 0
18.7524 0 0
18.8494 0 0
18.8494 0 0
18.9463 0 0
18.9463 0 0
19.0432 0 0
19.0432 0 0
19.1401 0 0
19.1401 0 0
19.2371 0 0
19.2371 0 0
19.334 0 0
19.334 0 0
19.4309 0 0
19.4309 0 0
19.5278 0 0
19.5278 0 0
19.6248 0 0
19.6248 0 0
19.7217 0 0
19.7217 0 0
19.8186 0 0
19.8186 0 0
19.9155 0 0
19.9155 0 0
20.0125 0 0
20.0125 0 0
20.1094 0 0
20.1094 0 0
20.2063 0 0
20.2063 0 0
20.3032 0 0
20.3032 0 0
20.4001 0 0
20.4001 0 0
20.4971 0 0
20.4971 0 0
20.594 0 0
20.594 0 0
20.6909 0 0
20.6909 0 0
20.7878 0 0
20.7878 0 0
20.8848 0 0
20.8848 0 0
20.9817 0 0
20.9817 0 0
21.0786 0 0
21.0786 0 0
21.1755 0 0
21.1755 0 0
21.2725 0 0
21.2725 0 0
21.3694 0 0
21.3694 0 0
21.4663 0 0
21.4663 0 0
21.5632 0 0
21.5632 0 0
21.6602 0 0
21.6602 0 0
21.7571 0 0
21.7571 0 0
21.854 0 0
21.854 0 0
21.9509 0 0
21.9509 0 0
22.0479 0 0
22.0479 0 0
22.1448 0 0
22.1448 0 0
22.2417 0 0
22.2417 0 0
22.3386 0 0
22.3386 0 0
22.4355 0 0
22.4355 0 0
22.5325 0 0
22.5325 0 0
22.6294 0 0
22.6294 0 0
22.7263 0 0
22.7263 0 0
22.8232 0 0
22.8232 0 0
22.9202 0 0
22.9202 0 0
23.0171 0 0
23.0171 0 0
23.114 0 0
23.114 0 0
23.2109 0 0
23.2109 0 0
23.3079 0 0
23.3079 0 0
23.4048 0 0
23.4048 0 0
23.5017 0 0
23.5017 0 0
23.5986 0 0
23.5986 0 0
23.6956 0 0
23.6956 0 0
23.7925 0 0
23.7925 0 0
23.8894 0 0
23.8894 0 0
23.9863 0 0
23.9863 0 0
24.0833 0 0
24.0833 0 0
24.1802 0 0
24.1802 0 0
24.2771 0 0
24.2771 0 0
24.374 0 0
24.374 0 0
24.4709 0 0
24.4709 0 0
24.5679 0 0
24.5679 0 0
24.6648 0 0
24.6648 0 0
24.7617 0 0
24.7617 0 0
24.8586 0 0
24.8586 0 0
24.9556 0 0
24.9556 0 0
25.0525 0 0
25.0525 0 0
25.1494 0 0
25.1494 0 0
25.2463 0 0
25.2463 0 0
25.3433 0 0
25.3433 0 0
25.4402 0 0
25.4402 0 0
25.5371 0 0
25.5371 0 0
25.634 0 0
25.634 0 0
25.731 0 0
25.731 0 0
25.8279 0 0
25.8279 0 0
25.9248 0 0
25.9248 0 0
26.0217 0 0
26.0217 0 0
26.1187 0 0
26.1187 0 0
26.2156 0 0
26.2156 0 0
26.3125 0 0
26.3125 0 0
26.4094 0 0
26.4094 0 0
26.5063 0 0
26.5063 0 0
26.6033 0 0
26.6033 0 0
26.7002 0 0
26.7002 0 0
26.7971 0 0
26.7971 0 0
26.894 0 0
26.894 0 0
26.991 0 0
26.991 0 0
27.0879 0 0
27.0879 0 0
27.1848 0 0
27.1848 0 0
27.2817 0 0
27.2817 0 0
27.3787 0 0
27.3787 0 0
27.4756 0 0
27.4756 0 0
27.5725 0 0
27.5725 0 0
27.6694 0 0
27.6694 0 0
27.7664 0 0
27.7664 0 0
27.8633 0 0
27.8633 0 0
27.9602 0 0
27.9602 0 0
28.0571 0 0
28.0571 0 0
28.1541 0 0
28.1541 0 0
28.251 0 0
28.251 0 0
28.3479 0 0
28.3479 0 0
28.4448 0 0
28.4448 0 0
28.5417 0 0
28.5417 0 0
28.6387 0 0
28.6387 0 0
28.7356 0 0
28.7356 0 0
28.8325 0 0
28.8325 0 0
28.9294 0 0
28.9294 0 0
29.0264 0 0
29.0264 0 0
29.1233 0 0
29.1233 0 0
29.2202 0 0
29.2202 0 0
29.3171 0 0
29.3171 0 0
29.4141 0 0
29.4141 0 0
29.511 0 0
29.511 0 0
29.6079 0 0
29.6079 0 0
29.7048 0 0
29.7048 0 0
29.8018 0 0
29.8018 0 0
29.8987 0 0
29.8987 0 0
29.9956 0 0
29.9956 0 0
30.0925 0 0
30.0925 0 0
30.1895 0 0
30.1895 0 0
30.2864 0 0
30.2864 0 0
30.3833 0 0
30.3833 0 0
30.4802 0 0
30.4802 0 0
30.5771 0 0
30.5771 0 0
30.6741 0 0
30.6741 0 0
30.771 0 0
30.771 0 0
30.8679 0 0
30.8679 0 0
30.9648 0 0
30.9648 0 0
31.0618 0 0
31.0618 0 0
31.1587 0 0
31.1587 0 0
31.2556 0 0
31.2556 0 0
31.3525 0 0
31.3525 0 0
31.4495 0 0
31.4495 0 0
31.5464 0 0
31.5464 0 0
31.6433 0 0
31.6433 0 0
31.7402 0 0
31.7402 0 0
31.8372 0 0
31.8372 0 0
31.9341 0 0
31.9341 0 0
32.031 0 0
32.031 0 0
32.1279 0 0
32.1279 0 0
32.2249 0 0
32.2249 0 0
32.3218 0 0
32.3218 0 0
32.4187 0 0
32.4187 0 0
32.5156 0 0
32.5156 0 0
32.6125 0 0
32.6125 0 0
32.7095 0 0
32.7095 0 0
32.8064 0 0
32.8064 0 0
32.9033 0 0
32.9033 0 0
33.0002 0 0
33.0002 0 0
33.0972 0 0
33.0972 0 0
33.1941 0 0
33.1941 0 0
33.291 0 0
33.291 0 0
33.3879 0 0
33.3879 0 0
33.4849 0 0
33.4849 0 0
33.5818 0 0
33.5818 0 0
33.6787 0 0
33.6787 0 0
33.7756 0 0
33.7756 0 0
33.8726 0 0
33.8726 0 0
33.9695 0 0
33.9695 0 0
34.0664 0 0
34.0664 0 0
34.1633 0 0
34.1633 0 0
34.2603 0 0
34.2603 0 0
34.3572 0 0
34.3572 0 0
34.4541 0 0
34.4541 0 0
34.551 0 0
34.551 0 0
34.6479 0 0
34.6479 0 0
34.7449 0 0
34.7449 0 0
34.8418 0 0
34.8418 0 0
34.9387 0 0
34.9387 0 0
35.0356 0 0
35.0356 0 0
35.1326 0 0
35.1326 0 0
35.2295 0 0
35.2295 0 0
35.3264 0 0
35.3264 0 0
35.4233 0 0
35.4233 0 0
35.5203 0 0
35.5203 0 0
35.6172 0 0
35.6172 0 0
35.7141 0 0
35.7141 0 0
35.811 0 0
35.811 0 0
35.908 0 0
35.908 0 0
36.0049 0 0
36.0049 0 0
36.1018 0 0
36.1018 0 0
36.1987 0 0
36.1987 0 0
36.2957 0 0
36.2957 0 0
36.3926 0 0
36.3926 0 0
36.4895 0 0
36.4895 0 0
36.5864 0 0
36.5864 0 0
36.6833 0 0
36.6833 0 0
36.7803 0 0
36.7803 0 0
36.8772 0 0
36.8772 0 0
36.9741 0 0
36.9741 0 0
37.071 0 0
37.071 0 0
37.168 0 0
37.168 0 0
37.2649 0 0
37.2649 0 0
37.3618 0 0
37.3618 0 0
37.4587 0 0
37.4587 0 0
37.5557 0 0
37.5557 0 0
37.6526 0 0
37.6526 0 0
37.7495 0 0
37.7495 0 0
37.8464 0 0
37.8464 0 0
37.9434 0 0
37.9434 0 0
38.0403 0 0
38.0403 0 0
38.1372 0 0
38.1372 0 0
38.2341 0 0
38.2341 0 0
38.3311 0 0
38.3311 0 0
38.428 0 0
38.428 0 0
38.5249 0 0
38.5249 0 0
38.6218 0 0
38.6218 0 0
38.7188 0 0
38.7188 0 0
38.8157 0 0
38.8157 0 0
38.9126 0 0
38.9126 0 0
39.0095 0 0
39.0095 0 0
39.1064 0 0
39.1064 0 0
39.2034 0 0
39.2034 0 0
39.3003 0 0
39.3003 0 0
39.3972 0 0
39.3972 0 0
39.4941 0 0
39.4941 0 0
39.5911 0 0
39.5911 0 0
39.688 0 0
39.688 0 0
39.7849 0 0
39.7849 0 0
39.8818 0 0
39.8818 0 0
39.9788 0 0
39.9788 0 0
40.0757 0 0
40.0757 0 0
40.1726 0 0
40.1726 0 0
40.2695 0 0
40.2695 0 0
40.3665 0 0
40.3665 0 0
40.4634 0 0
40.4634 0 0
40.5603 0 0
40.5603 0 0
40.6572 0 0
40.6572 0 0
40.7542 0 0
40.7542 0 0
40.8511 0 0
40.8511 0 0
40.948 0 0
40.948 0 0
41.0449 0 0
41.0449 0 0
41.1418 0 0
41.1418 0 0
41.2388 0 0
41.2388 0 0
41.3357 0 0
41.3357 0 0
41.4326 0 0
41.4326 0 0
41.5295 0 0
41.5295 0 0
[...]
POINT_DATA 4096
SCALARS solution_0 double 1
LOOKUP_TABLE default
519.882 509.09 509.09 499.983 499.983 492.221 492.221 485.541 485.541 479.741 479.741 474.66 474.66 470.173 470.173 466.176 466.176 462.588 462.588 459.341 459.341 456.381 456.381 453.662 453.662 451.146 451.146 448.801 448.801 446.602 446.602 444.525 444.525 442.551 442.551 440.665 440.665 438.853 438.853 437.103 437.103 435.404 435.404 433.75 433.75 432.131 432.131 430.542 430.542 428.977 428.977 427.431 427.431 425.901 425.901 424.383 424.383 422.874 422.874 421.371 421.371 419.872 419.872 418.376 418.376 416.879 416.879 415.382 415.382 413.883 413.883 412.381 412.381 410.875 410.875 409.365 409.365 407.849 407.849 406.328 406.328 404.802 404.802 403.268 403.268 401.729 401.729 400.183 400.183 398.631 398.631 397.072 397.072 395.506 395.506 393.934 393.934 392.356 392.356 390.771 390.771 389.18 389.18 387.583 387.583 385.981 385.981 384.373 384.373 382.759 382.759 381.14 381.14 379.517 379.517 377.889 377.889 376.256 376.256 374.619 374.619 372.978 372.978 371.334 371.334 369.686 369.686 368.035 368.035 366.382 366.382 364.725 364.725 363.067 363.067 361.406 361.406 359.743 359.743 358.079 358.079 356.413 356.413 354.747 354.747 353.079 353.079 351.411 351.411 349.743 349.743 348.074 348.074 346.405 346.405 344.737 344.737 343.069 343.069 341.402 341.402 339.736 339.736 338.071 338.071 336.407 336.407 334.745 334.745 333.085 333.085 331.426 331.426 329.77 329.77 328.115 328.115 326.464 326.464 324.814 324.814 323.168 323.168 321.524 321.524 319.884 319.884 318.247 318.247 316.613 316.613 314.982 314.982 313.355 313.355 311.732 311.732 310.113 310.113 308.498 308.498 306.887 306.887 305.28 305.28 303.677 303.677 302.079 302.079 300.486 300.486 298.897 298.897 297.313 297.313 295.734 295.734 294.16 294.16 292.591 292.591 291.027 291.027 289.468 289.468 287.914 287.914 286.366 286.366 284.824 284.824 283.286 283.286 281.755 281.755 280.229 280.229 278.708 278.708 277.194 277.194 275.685 275.685 274.182 274.182 272.685 272.685 271.194 271.194 269.709 269.709 268.23 268.23 266.757 266.757 265.291 265.291 263.83 263.83 262.376 262.376 260.928 260.928 259.486 259.486 258.051 258.051 256.622 256.622 255.199 255.199 253.783 253.783 252.373 252.373 250.969 250.969 249.572 249.572 248.182 248.182 246.798 246.798 245.42 245.42 244.049 244.049 242.685 242.685 241.327 241.327 239.975 239.975 238.63 238.63 237.292 237.292 235.961 235.961 234.635 234.635 233.317 233.317 232.005 232.005 230.7 230.7 229.401 229.401 228.109 228.109 226.823 226.823 225.544 225.544 224.272 224.272 223.006 223.006 221.747 221.747 220.494 220.494 219.248 219.248 218.009 218.009 216.776 216.776 215.549 215.549 214.329 214.329 213.116 213.116 211.909 211.909 210.709 210.709 209.515 209.515 208.327 208.327 207.146 207.146 205.971 205.971 204.803 204.803 203.641 203.641 202.486 202.486 201.337 201.337 200.194 200.194 199.058 199.058 197.928 197.928 196.804 196.804 195.687 195.687 194.575 194.575 193.47 193.47 192.372 192.372 191.279 191.279 190.193 190.193 189.112 189.112 188.038 188.038 186.97 186.97 185.908 185.908 184.852 184.852 183.803 183.803 182.759 182.759 181.721 181.721 180.689 180.689 179.663 179.663 178.643 178.643 177.629 177.629 176.621 176.621 175.618 175.618 174.622 174.622 173.631 173.631 172.646 172.646 171.667 171.667 170.693 170.693 169.725 169.725 168.763 168.763 167.807 167.807 166.856 166.856 165.91 165.91 164.971 164.971 164.036 164.036 163.107 163.107 162.184 162.184 161.266 161.266 160.354 160.354 159.447 159.447 158.545 158.545 157.649 157.649 156.758 156.758 155.872 155.872 154.992 154.992 154.117 154.117 153.247 153.247 152.382 152.382 151.522 151.522 150.667 150.667 149.818 149.818 148.974 148.974 148.134 148.134 147.3 147.3 146.47 146.47 145.646 145.646 144.827 144.827 144.012 144.012 143.202 143.202 142.397 142.397 141.597 141.597 140.802 140.802 140.012 140.012 139.226 139.226 138.445 138.445 137.669 137.669 136.897 136.897 136.13 136.13 135.367 135.367 134.61 134.61 133.856 133.856 133.108 133.108 132.363 132.363 131.623 131.623 130.888 130.888 130.157 130.157 129.431 129.431 128.708 128.708 127.991 127.991 127.277 127.277 126.568 126.568 125.863 125.863 125.162 125.162 124.466 124.466 123.774 123.774 123.086 123.086 122.402 122.402 121.722 121.722 121.046 121.046 120.375 120.375 119.707 119.707 119.044 119.044 118.384 118.384 117.728 117.728 117.077 117.077 116.429 116.429 115.785 115.785 115.145 115.145 114.509 114.509 113.877 113.877 113.248 113.248 112.623 112.623 112.002 112.002 111.385 111.385 110.771 110.771 110.16 110.16 109.553 109.553 108.95 108.95 108.35 108.35 107.754 107.754 107.161 107.161 106.571 106.571 105.985 105.985 105.402 105.402 104.822 104.822 104.246 104.246 103.673 103.673 103.103 103.103 102.536 102.536 101.972 101.972 101.412 101.412 100.855 100.855 100.301 100.301 99.7499 99.7499 99.2021 99.2021 98.6574 98.6574 98.1159 98.1159 97.5774 97.5774 97.0419 97.0419 96.5094 96.5094 95.9799 95.9799 95.4533 95.4533 94.9295 94.9295 94.4083 94.4083 93.8898 93.8898 93.3737 93.3737 92.8598 92.8598 92.348 92.348 91.838 91.838 91.3295 91.3295 90.8222 90.8222 90.3158 90.3158 89.81 89.81 89.3043 89.3043 88.7986 88.7986 88.2925 88.2925 87.7857 87.7857 87.2782 87.2782 86.7698 86.7698 86.2607 86.2607 85.751 85.751 85.2411 85.2411 84.7315 84.7315 84.2229 84.2229 83.7163 83.7163 83.2124 83.2124 82.7125 82.7125 82.2176 82.2176 81.7288 81.7288 81.2475 81.2475 80.7745 80.7745 80.3109 80.3109 79.8575 79.8575 79.4149 79.4149 78.9838 78.9838 78.5645 78.5645 78.1572 78.1572 77.7622 77.7622 77.3793 77.3793 77.0088 77.0088 76.6506 76.6506 76.3048 76.3048 75.9714 75.9714 75.6505 75.6505 75.3421 75.3421 75.0464 75.0464 74.7633 74.7633 74.4928 74.4928 74.2347 74.2347 73.9887 73.9887 73.7542 73.7542 73.5306 73.5306 73.3168 73.3168 73.1117 73.1117 72.9139 72.9139 72.7218 72.7218 72.5337 72.5337 72.3476 72.3476 72.1614 72.1614 71.973 71.973 71.78 71.78 71.5803 71.5803 71.3716 71.3716 71.1517 71.1517 70.9186 70.9186 70.6704 70.6704 70.4054 70.4054 70.1223 70.1223 69.82 69.82 69.4975 69.4975 69.1546 69.1546 68.7912 68.7912 68.4075 68.4075 68.0042 68.0042 67.5824 67.5824 67.1433 67.1433 66.6885 66.6885 66.2201 66.2201 65.7399 65.7399 65.2502 65.2502 64.7534 64.7534 64.2517 64.2517 63.7476 63.7476 63.2432 63.2432 62.7407 62.7407 62.2422 62.2422 61.7495 61.7495 61.2641 61.2641 60.7874 60.7874 60.3207 60.3207 59.8647 59.8647 59.4201 59.4201 58.9873 58.9873 58.5665 58.5665 58.1577 58.1577 57.7607 57.7607 57.3752 57.3752 57.0008 57.0008 56.6367 56.6367 56.2826 56.2826 55.9376 55.9376 55.6012 55.6012 55.2725 55.2725 54.951 54.951 54.6359 54.6359 54.3266 54.3266 54.0226 54.0226 53.7233 53.7233 53.4283 53.4283 53.137 53.137 52.8492 52.8492 52.5644 52.5644 52.2825 52.2825 52.0031 52.0031 51.726 51.726 51.4512 51.4512 51.1783 51.1783 50.9074 50.9074 50.6383 50.6383 50.3709 50.3709 50.1052 50.1052 49.8411 49.8411 49.5785 49.5785 49.3175 49.3175 49.0581 49.0581 48.8 48.8 48.5435 48.5435 48.2884 48.2884 48.0347 48.0347 47.7825 47.7825 47.5317 47.5317 47.2822 47.2822 47.0341 47.0341 46.7874 46.7874 46.5421 46.5421 46.2981 46.2981 46.0554 46.0554 45.8141 45.8141 45.5741 45.5741 45.3354 45.3354 45.098 45.098 44.8619 44.8619 44.6271 44.6271 44.3935 44.3935 44.1612 44.1612 43.9302 43.9302 43.7004 43.7004 43.4719 43.4719 43.2446 43.2446 43.0185 43.0185 42.7936 42.7936 42.57 42.57 42.3475 42.3475 42.1262 42.1262 41.9061 41.9061 41.6872 41.6872 41.4694 41.4694 41.2528 41.2528 41.0373 41.0373 40.823 40.823 40.6098 40.6098 40.3978 40.3978 40.1868 40.1868 39.977 39.977 39.7682 39.7682 39.5606 39.5606 39.354 39.354 39.1486 39.1486 38.9441 38.9441 38.7408 38.7408 38.5385 38.5385 38.3373 38.3373 38.1371 38.1371 37.9379 37.9379 37.7398 37.7398 37.5427 37.5427 37.3466 37.3466 37.1515 37.1515 36.9575 36.9575 36.7644 36.7644 36.5723 36.5723 36.3812 36.3812 36.191 36.191 36.0019 36.0019 35.8137 35.8137 35.6264 35.6264 35.4401 35.4401 35.2548 35.2548 35.0704 35.0704 34.8869 34.8869 34.7043 34.7043 34.5227 34.5227 34.342 34.342 34.1621 34.1621 33.9832 33.9832 33.8052 33.8052 33.6281 33.6281 33.4518 33.4518 33.2765 33.2765 33.102 33.102 32.9283 32.9283 32.7556 32.7556 32.5837 32.5837 32.4126 32.4126 32.2424 32.2424 32.073 32.073 31.9045 31.9045 31.7367 31.7367 31.5699 31.5699 31.4038 31.4038 31.2385 31.2385 31.0741 31.0741 30.9104 30.9104 30.7476 30.7476 30.5855 30.5855 30.4243 30.4243 30.2638 30.2638 30.1041 30.1041 29.9451 29.9451 29.787 29.787 29.6296 29.6296 29.4729 29.4729 29.3171 29.3171 29.1619 29.1619 29.0075 29.0075 28.8539 28.8539 28.701 28.701 28.5488 28.5488 28.3973 28.3973 28.2466 28.2466 28.0965 28.0965 27.9472 27.9472 27.7986 27.7986 27.6508 27.6508 27.5036 27.5036 27.3571 27.3571 27.2113 27.2113 27.0661 27.0661 26.9217 26.9217 26.7779 26.7779 26.6349 26.6349 26.4925 26.4925 26.3507 26.3507 26.2096 26.2096 26.0692 26.0692 25.9295 25.9295 25.7903 25.7903 25.6519 25.6519 25.514 25.514 25.3769 25.3769 25.2403 25.2403 25.1044 25.1044 24.9691 24.9691 24.8344 24.8344 24.7004 24.7004 24.567 24.567 24.4342 24.4342 24.302 24.302 24.1704 24.1704 24.0394 24.0394 23.909 23.909 23.7792 23.7792 23.65 23.65 23.5214 23.5214 23.3933 23.3933 23.2659 23.2659 23.139 23.139 23.0127 23.0127 22.887 22.887 22.7618 22.7618 22.6372 22.6372 22.5132 22.5132 22.3897 22.3897 22.2668 22.2668 22.1445 22.1445 22.0226 22.0226 21.9014 21.9014 21.7806 21.7806 21.6605 21.6605 21.5408 21.5408 21.4217 21.4217 21.3031 21.3031 21.1851 21.1851 21.0675 21.0675 20.9505 20.9505 20.834 20.834 20.718 20.718 20.6026 20.6026 20.4876 20.4876 20.3732 20.3732 20.2592 20.2592 20.1458 20.1458 20.0329 20.0329 19.9204 19.9204 19.8085 19.8085 19.697 19.697 19.586 19.586 19.4755 19.4755 19.3655 19.3655 19.256 19.256 19.1469 19.1469 19.0384 19.0384 18.9302 18.9302 18.8226 18.8226 18.7154 18.7154 18.6087 18.6087 18.5025 18.5025 18.3967 18.3967 18.2914 18.2914 18.1865 18.1865 18.0821 18.0821 17.9781 17.9781 17.8746 17.8746 17.7715 17.7715 17.6688 17.6688 17.5666 17.5666 17.4648 17.4648 17.3635 17.3635 17.2626 17.2626 17.1621 17.1621 17.0621 17.0621 16.9625 16.9625 16.8633 16.8633 16.7645 16.7645 16.6661 16.6661 16.5682 16.5682 16.4707 16.4707 16.3735 16.3735 16.2768 16.2768 16.1805 16.1805 16.0846 16.0846 15.9891 15.9891 15.8941 15.8941 15.7994 15.7994 15.7051 15.7051 15.6112 15.6112 15.5177 15.5177 15.4245 15.4245 15.3318 15.3318 15.2395 15.2395 15.1475 15.1475 15.0559 15.0559 14.9647 14.9647 14.8739 14.8739 14.7835 14.7835 14.6934 14.6934 14.6037 14.6037 14.5144 14.5144 14.4254 14.4254 14.3368 14.3368 14.2486 14.2486 14.1608 14.1608 14.0733 14.0733 13.9861 13.9861 13.8993 13.8993 13.8129 13.8129 13.7268 13.7268 13.6411 13.6411 13.5557 13.5557 13.4707 13.4707 13.386 13.386 13.3017 13.3017 13.2177 13.2177 13.134 13.134 13.0507 13.0507 12.9678 12.9678 12.8851 12.8851 12.8028 12.8028 12.7209 12.7209 12.6392 12.6392 12.5579 12.5579 12.4769 12.4769 12.3963 12.3963 12.3159 12.3159 12.2359 12.2359 12.1562 12.1562 12.0769 12.0769 11.9978 11.9978 11.9191 11.9191 11.8407 11.8407 11.7626 11.7626 11.6848 11.6848 11.6073 11.6073 11.5301 11.5301 11.4532 11.4532 11.3767 11.3767 11.3004 11.3004 11.2245 11.2245 11.1488 11.1488 11.0735 11.0735 10.9984 10.9984 10.9236 10.9236 10.8492 10.8492 10.775 10.775 10.7011 10.7011 10.6275 10.6275 10.5542 10.5542 10.4812 10.4812 10.4085 10.4085 10.3361 10.3361 10.2639 10.2639 10.192 10.192 10.1204 10.1204 10.0491 10.0491 9.97809 9.97809 9.90734 9.90734 9.83686 9.83686 9.76665 9.76665 9.69671 9.69671 9.62705 9.62705 9.55766 9.55766 9.48854 9.48854 9.41968 9.41968 9.3511 9.3511 9.28277 9.28277 9.21471 9.21471 9.14692 9.14692 9.07938 9.07938 9.01211 9.01211 8.94509 8.94509 8.87833 8.87833 8.81183 8.81183 8.74559 8.74559 8.6796 8.6796 8.61386 8.61386 8.54837 8.54837 8.48314 8.48314 8.41815 8.41815 8.35341 8.35341 8.28892 8.28892 8.22467 8.22467 8.16067 8.16067 8.09692 8.09692 8.0334 8.0334 7.97013 7.97013 7.90709 7.90709 7.8443 7.8443 7.78174 7.78174 7.71943 7.71943 7.65734 7.65734 7.59549 7.59549 7.53388 7.53388 7.4725 7.4725 7.41135 7.41135 7.35042 7.35042 7.28973 7.28973 7.22927 7.22927 7.16903 7.16903 7.10902 7.10902 7.04924 7.04924 6.98968 6.98968 6.93034 6.93034 6.87123 6.87123 6.81233 6.81233 6.75366 6.75366 6.6952 6.6952 6.63697 6.63697 6.57895 6.57895 6.52114 6.52114 6.46355 6.46355 6.40618 6.40618 6.34902 6.34902 6.29207 6.29207 6.23533 6.23533 6.1788 6.1788 6.12248 6.12248 6.06637 6.06637 6.01047 6.01047 5.95477 5.95477 5.89928 5.89928 5.844 5.844 5.78891 5.78891 5.73403 5.73403 5.67936 5.67936 5.62488 5.62488 5.5706 5.5706 5.51652 5.51652 5.46265 5.46265 5.40896 5.40896 5.35548 5.35548 5.30219 5.30219 5.24909 5.24909 5.19619 5.19619 5.14349 5.14349 5.09097 5.09097 5.03865 5.03865 4.98651 4.98651 4.93457 4.93457 4.88282 4.88282 4.83125 4.83125 4.77987 4.77987 4.72868 4.72868 4.67767 4.67767 4.62685 4.62685 4.57621 4.57621 4.52575 4.52575 4.47548 4.47548 4.42539 4.42539 4.37548 4.37548 4.32575 4.32575 4.2762 4.2762 4.22682 4.22682 4.17763 4.17763 4.12861 4.12861 4.07977 4.07977 4.0311 4.0311 3.98261 3.98261 3.93429 3.93429 3.88615 3.88615 3.83817 3.83817 3.79037 3.79037 3.74274 3.74274 3.69528 3.69528 3.64799 3.64799 3.60087 3.60087 3.55392 3.55392 3.50713 3.50713 3.46051 3.46051 3.41405 3.41405 3.36777 3.36777 3.32164 3.32164 3.27568 3.27568 3.22988 3.22988 3.18425 3.18425 3.13877 3.13877 3.09346 3.09346 3.04831 3.04831 3.00331 3.00331 2.95848 2.95848 2.9138 2.9138 2.86928 2.86928 2.82492 2.82492 2.78072 2.78072 2.73667 2.73667 2.69277 2.69277 2.64903 2.64903 2.60545 2.60545 2.56201 2.56201 2.51873 2.51873 2.4756 2.4756 2.43263 2.43263 2.3898 2.3898 2.34712 2.34712 2.30459 2.30459 2.26221 2.26221 2.21998 2.21998 2.17789 2.17789 2.13596 2.13596 2.09417 2.09417 2.05252 2.05252 2.01102 2.01102 1.96966 1.96966 1.92845 1.92845 1.88738 1.88738 1.84645 1.84645 1.80567 1.80567 1.76502 1.76502 1.72452 1.72452 1.68416 1.68416 1.64393 1.64393 1.60385 1.60385 1.5639 1.5639 1.52409 1.52409 1.48442 1.48442 1.44489 1.44489 1.40549 1.40549 1.36623 1.36623 1.32711 1.32711 1.28812 1.28812 1.24926 1.24926 1.21053 1.21053 1.17194 1.17194 1.13349 1.13349 1.09516 1.09516 1.05696 1.05696 1.0189 1.0189 0.980965 0.980965 0.943161 0.943161 0.905487 0.905487 0.867941 0.867941 0.830523 0.830523 0.793233 0.793233 0.75607 0.75607 0.719034 0.719034 0.682124 0.682124 0.64534 0.64534 0.608681 0.608681 0.572146 0.572146 0.535736 0.535736 0.49945 0.49945 0.463287 0.463287 0.427246 0.427246 0.391328 0.391328 0.355531 0.355531 0.319856 0.319856 0.284302 0.284302 0.248867 0.248867 0.213553 0.213553 0.178358 0.178358 0.143282 0.143282 0.108324 0.108324 0.0734844 0.0734844 0.0387622 0.0387622 0.00415691 0.00415691 -0.0303318 -0.0303318 -0.0647044 -0.0647044 -0.0989614 -0.0989614 -0.133103 -0.133103 -0.16713 -0.16713 -0.201043 -0.201043 -0.234842 -0.234842 -0.268527 -0.268527 -0.3021 -0.3021 -0.33556 -0.33556 -0.368908 -0.368908 -0.402144 -0.402144 -0.435269 -0.435269 -0.468284 -0.468284 -0.501188 -0.501188 -0.533982 -0.533982 -0.566666 -0.566666 -0.599242 -0.599242 -0.631709 -0.631709 -0.664067 -0.664067 -0.696318 -0.696318 -0.728462 -0.728462 -0.760498 -0.760498 -0.792428 -0.792428 -0.824252 -0.824252 -0.85597 -0.85597 -0.887583 -0.887583 -0.919091 -0.919091 -0.950494 -0.950494 -0.981793 -0.981793 -1.01299 -1.01299 -1.04408 -1.04408 -1.07507 -1.07507 -1.10596 -1.10596 -1.13674 -1.13674 -1.16742 -1.16742 -1.19801 -1.19801 -1.22849 -1.22849 -1.25887 -1.25887 -1.28915 -1.28915 -1.31932 -1.31932 -1.34941 -1.34941 -1.37939 -1.37939 -1.40927 -1.40927 -1.43905 -1.43905 -1.46874 -1.46874 -1.49833 -1.49833 -1.52782 -1.52782 -1.55721 -1.55721 -1.58651 -1.58651 -1.61571 -1.61571 -1.64482 -1.64482 -1.67383 -1.67383 -1.70275 -1.70275 -1.73157 -1.73157 -1.76029 -1.76029 -1.78893 -1.78893 -1.81747 -1.81747 -1.84591 -1.84591 -1.87426 -1.87426 -1.90253 -1.90253 -1.93069 -1.93069 -1.95877 -1.95877 -1.98675 -1.98675 -2.01465 -2.01465 -2.04245 -2.04245 -2.07016 -2.07016 -2.09778 -2.09778 -2.12532 -2.12532 -2.15276 -2.15276 -2.18011 -2.18011 -2.20738 -2.20738 -2.23455 -2.23455 -2.26164 -2.26164 -2.28864 -2.28864 -2.31555 -2.31555 -2.34238 -2.34238 -2.36912 -2.36912 -2.39577 -2.39577 -2.42233 -2.42233 -2.44881 -2.44881 -2.47521 -2.47521 -2.50151 -2.50151 -2.52774 -2.52774 -2.55388 -2.55388 -2.57993 -2.57993 -2.6059 -2.6059 -2.63179 -2.63179 -2.65759 -2.65759 -2.68331 -2.68331 -2.70895 -2.70895 -2.7345 -2.7345 -2.75997 -2.75997 -2.78536 -2.78536 -2.81067 -2.81067 -2.8359 -2.8359 -2.86104 -2.86104 -2.88611 -2.88611 -2.91109 -2.91109 -2.936 -2.936 -2.96082 -2.96082 -2.98557 -2.98557 -3.01024 -3.01024 -3.03482 -3.03482 -3.05933 -3.05933 -3.08376 -3.08376 -3.10811 -3.10811 -3.13238 -3.13238 -3.15658 -3.15658 -3.1807 -3.1807 -3.20474 -3.20474 -3.2287 -3.2287 -3.25259 -3.25259 -3.27641 -3.27641 -3.30014 -3.30014 -3.3238 -3.3238 -3.34739 -3.34739 -3.3709 -3.3709 -3.39433 -3.39433 -3.41769 -3.41769 -3.44098 -3.44098 -3.46419 -3.46419 -3.48733 -3.48733 -3.51039 -3.51039 -3.53338 -3.53338 -3.5563 -3.5563 -3.57915 -3.57915 -3.60192 -3.60192 -3.62462 -3.62462 -3.64725 -3.64725 -3.6698 -3.6698 -3.69229 -3.69229 -3.7147 -3.7147 -3.73705 -3.73705 -3.75932 -3.75932 -3.78152 -3.78152 -3.80365 -3.80365 -3.82571 -3.82571 -3.8477 -3.8477 -3.86963 -3.86963 -3.89148 -3.89148 -3.91326 -3.91326 -3.93498 -3.93498 -3.95663 -3.95663 -3.9782 -3.9782 -3.99971 -3.99971 -4.02116 -4.02116 -4.04253 -4.04253 -4.06384 -4.06384 -4.08508 -4.08508 -4.10625 -4.10625 -4.12736 -4.12736 -4.1484 -4.1484 -4.16937 -4.16937 -4.19028 -4.19028 -4.21113 -4.21113 -4.2319 -4.2319 -4.25261 -4.25261 -4.27326 -4.27326 -4.29384 -4.29384 -4.31436 -4.31436 -4.33481 -4.33481 -4.3552 -4.3552 -4.37553 -4.37553 -4.39579 -4.39579 -4.41599 -4.41599 -4.43612 -4.43612 -4.45619 -4.45619 -4.4762 -4.4762 -4.49615 -4.49615 -4.51603 -4.51603 -4.53585 -4.53585 -4.55561 -4.55561 -4.57531 -4.57531 -4.59495 -4.59495 -4.61452 -4.61452 -4.63404 -4.63404 -4.65349 -4.65349 -4.67288 -4.67288 -4.69221 -4.69221 -4.71148 -4.71148 -4.73069 -4.73069 -4.74985 -4.74985 -4.76894 -4.76894 -4.78797 -4.78797 -4.80694 -4.80694 -4.82586 -4.82586 -4.84471 -4.84471 -4.86351 -4.86351 -4.88224 -4.88224 -4.90092 -4.90092 -4.91955 -4.91955 -4.93811 -4.93811 -4.95661 -4.95661 -4.97506 -4.97506 -4.99345 -4.99345 -5.01179 -5.01179 -5.03007 -5.03007 -5.04829 -5.04829 -5.06645 -5.06645 -5.08456 -5.08456 -5.10261 -5.10261 -5.1206 -5.1206 -5.13854 -5.13854 -5.15643 -5.15643 -5.17426 -5.17426 -5.19203 -5.19203 -5.20975 -5.20975 -5.22741 -5.22741 -5.24502 -5.24502 -5.26257 -5.26257 -5.28007 -5.28007 -5.29752 -5.29752 -5.31491 -5.31491 -5.33225 -5.33225 -5.34953 -5.34953 -5.36677 -5.36677 -5.38394 -5.38394 -5.40107 -5.40107 -5.41814 -5.41814 -5.43516 -5.43516 -5.45213 -5.45213 -5.46904 -5.46904 -5.4859 -5.4859 -5.50271 -5.50271 -5.51947 -5.51947 -5.53618 -5.53618 -5.55284 -5.55284 -5.56944 -5.56944 -5.58599 -5.58599 -5.60249 -5.60249 -5.61895 -5.61895 -5.63535 -5.63535 -5.6517 -5.6517 -5.668 -5.668 -5.68425 -5.68425 -5.70045 -5.70045 -5.7166 -5.7166 -5.7327 -5.7327 -5.74875 -5.74875 -5.76475 -5.76475 -5.7807 -5.7807 -5.7966 -5.7966 -5.81246 -5.81246 -5.82826 -5.82826 -5.84402 -5.84402 -5.85973 -5.85973 -5.87539 -5.87539 -5.891 -5.891 -5.90657 -5.90657 -5.92208 -5.92208 -5.93755 -5.93755 -5.95298 -5.95298 -5.96835 -5.96835 -5.98368 -5.98368 -5.99896 -5.99896 -6.01419 -6.01419 -6.02938 -6.02938 -6.04452 -6.04452 -6.05962 -6.05962 -6.07466 -6.07466 -6.08967 -6.08967 -6.10462 -6.10462 -6.11953 -6.11953 -6.1344 -6.1344 -6.14922 -6.14922 -6.16399 -6.16399 -6.17872 -6.17872 -6.1934 -6.1934 -6.20804 -6.20804 -6.22263 -6.22263 -6.23718 -6.23718 -6.25169 -6.25169 -6.26615 -6.26615 -6.28057 -6.28057 -6.29494 -6.29494 -6.30927 -6.30927 -6.32355 -6.32355 -6.33779 -6.33779 -6.35199 -6.35199 -6.36615 -6.36615 -6.38026 -6.38026 -6.39433 -6.39433 -6.40835 -6.40835 -6.42233 -6.42233 -6.43627 -6.43627 -6.45017 -6.45017 -6.46403 -6.46403 -6.47784 -6.47784 -6.49161 -6.49161 -6.50534 -6.50534 -6.51903 -6.51903 -6.53267 -6.53267 -6.54627 -6.54627 -6.55984 -6.55984 -6.57336 -6.57336 -6.58684 -6.58684 -6.60028 -6.60028 -6.61367 -6.61367 -6.62703 -6.62703 -6.64035 -6.64035 -6.65362 -6.65362 -6.66686 -6.66686 -6.