# vtk DataFile Version 3.0
#This file was generated by the deal.II library on 2020/9/6 at 2:58:24
ASCII
DATASET UNSTRUCTURED_GRID

POINTS 4096 double
1.5 0 0
1.59692 0 0
1.59692 0 0
1.69385 0 0
1.69385 0 0
1.79077 0 0
1.79077 0 0
1.8877 0 0
1.8877 0 0
1.98462 0 0
1.98462 0 0
2.08154 0 0
2.08154 0 0
2.17847 0 0
2.17847 0 0
2.27539 0 0
2.27539 0 0
2.37231 0 0
2.37231 0 0
2.46924 0 0
2.46924 0 0
2.56616 0 0
2.56616 0 0
2.66309 0 0
2.66309 0 0
2.76001 0 0
2.76001 0 0
2.85693 0 0
2.85693 0 0
2.95386 0 0
2.95386 0 0
3.05078 0 0
3.05078 0 0
3.14771 0 0
3.14771 0 0
3.24463 0 0
3.24463 0 0
3.34155 0 0
3.34155 0 0
3.43848 0 0
3.43848 0 0
3.5354 0 0
3.5354 0 0
3.63232 0 0
3.63232 0 0
3.72925 0 0
3.72925 0 0
3.82617 0 0
3.82617 0 0
3.9231 0 0
3.9231 0 0
4.02002 0 0
4.02002 0 0
4.11694 0 0
4.11694 0 0
4.21387 0 0
4.21387 0 0
4.31079 0 0
4.31079 0 0
4.40771 0 0
4.40771 0 0
4.50464 0 0
4.50464 0 0
4.60156 0 0
4.60156 0 0
4.69849 0 0
4.69849 0 0
4.79541 0 0
4.79541 0 0
4.89233 0 0
4.89233 0 0
4.98926 0 0
4.98926 0 0
5.08618 0 0
5.08618 0 0
5.18311 0 0
5.18311 0 0
5.28003 0 0
5.28003 0 0
5.37695 0 0
5.37695 0 0
5.47388 0 0
5.47388 0 0
5.5708 0 0
5.5708 0 0
5.66772 0 0
5.66772 0 0
5.76465 0 0
5.76465 0 0
5.86157 0 0
5.86157 0 0
5.9585 0 0
5.9585 0 0
6.05542 0 0
6.05542 0 0
6.15234 0 0
6.15234 0 0
6.24927 0 0
6.24927 0 0
6.34619 0 0
6.34619 0 0
6.44312 0 0
6.44312 0 0
6.54004 0 0
6.54004 0 0
6.63696 0 0
6.63696 0 0
6.73389 0 0
6.73389 0 0
6.83081 0 0
6.83081 0 0
6.92773 0 0
6.92773 0 0
7.02466 0 0
7.02466 0 0
7.12158 0 0
7.12158 0 0
7.21851 0 0
7.21851 0 0
7.31543 0 0
7.31543 0 0
7.41235 0 0
7.41235 0 0
7.50928 0 0
7.50928 0 0
7.6062 0 0
7.6062 0 0
7.70312 0 0
7.70312 0 0
7.80005 0 0
7.80005 0 0
7.89697 0 0
7.89697 0 0
7.9939 0 0
7.9939 0 0
8.09082 0 0
8.09082 0 0
8.18774 0 0
8.18774 0 0
8.28467 0 0
8.28467 0 0
8.38159 0 0
8.38159 0 0
8.47852 0 0
8.47852 0 0
8.57544 0 0
8.57544 0 0
8.67236 0 0
8.67236 0 0
8.76929 0 0
8.76929 0 0
8.86621 0 0
8.86621 0 0
8.96313 0 0
8.96313 0 0
9.06006 0 0
9.06006 0 0
9.15698 0 0
9.15698 0 0
9.25391 0 0
9.25391 0 0
9.35083 0 0
9.35083 0 0
9.44775 0 0
9.44775 0 0
9.54468 0 0
9.54468 0 0
9.6416 0 0
9.6416 0 0
9.73853 0 0
9.73853 0 0
9.83545 0 0
9.83545 0 0
9.93237 0 0
9.93237 0 0
10.0293 0 0
10.0293 0 0
10.1262 0 0
10.1262 0 0
10.2231 0 0
10.2231 0 0
10.3201 0 0
10.3201 0 0
10.417 0 0
10.417 0 0
10.5139 0 0
10.5139 0 0
10.6108 0 0
10.6108 0 0
10.7078 0 0
10.7078 0 0
10.8047 0 0
10.8047 0 0
10.9016 0 0
10.9016 0 0
10.9985 0 0
10.9985 0 0
11.0955 0 0
11.0955 0 0
11.1924 0 0
11.1924 0 0
11.2893 0 0
11.2893 0 0
11.3862 0 0
11.3862 0 0
11.4832 0 0
11.4832 0 0
11.5801 0 0
11.5801 0 0
11.677 0 0
11.677 0 0
11.7739 0 0
11.7739 0 0
11.8708 0 0
11.8708 0 0
11.9678 0 0
11.9678 0 0
12.0647 0 0
12.0647 0 0
12.1616 0 0
12.1616 0 0
12.2585 0 0
12.2585 0 0
12.3555 0 0
12.3555 0 0
12.4524 0 0
12.4524 0 0
12.5493 0 0
12.5493 0 0
12.6462 0 0
12.6462 0 0
12.7432 0 0
12.7432 0 0
12.8401 0 0
12.8401 0 0
12.937 0 0
12.937 0 0
13.0339 0 0
13.0339 0 0
13.1309 0 0
13.1309 0 0
13.2278 0 0
13.2278 0 0
13.3247 0 0
13.3247 0 0
13.4216 0 0
13.4216 0 0
13.5186 0 0
13.5186 0 0
13.6155 0 0
13.6155 0 0
13.7124 0 0
13.7124 0 0
13.8093 0 0
13.8093 0 0
13.9062 0 0
13.9062 0 0
14.0032 0 0
14.0032 0 0
14.1001 0 0
14.1001 0 0
14.197 0 0
14.197 0 0
14.2939 0 0
14.2939 0 0
14.3909 0 0
14.3909 0 0
14.4878 0 0
14.4878 0 0
14.5847 0 0
14.5847 0 0
14.6816 0 0
14.6816 0 0
14.7786 0 0
14.7786 0 0
14.8755 0 0
14.8755 0 0
14.9724 0 0
14.9724 0 0
15.0693 0 0
15.0693 0 0
15.1663 0 0
15.1663 0 0
15.2632 0 0
15.2632 0 0
15.3601 0 0
15.3601 0 0
15.457 0 0
15.457 0 0
15.554 0 0
15.554 0 0
15.6509 0 0
15.6509 0 0
15.7478 0 0
15.7478 0 0
15.8447 0 0
15.8447 0 0
15.9417 0 0
15.9417 0 0
16.0386 0 0
16.0386 0 0
16.1355 0 0
16.1355 0 0
16.2324 0 0
16.2324 0 0
16.3293 0 0
16.3293 0 0
16.4263 0 0
16.4263 0 0
16.5232 0 0
16.5232 0 0
16.6201 0 0
16.6201 0 0
16.717 0 0
16.717 0 0
16.814 0 0
16.814 0 0
16.9109 0 0
16.9109 0 0
17.0078 0 0
17.0078 0 0
17.1047 0 0
17.1047 0 0
17.2017 0 0
17.2017 0 0
17.2986 0 0
17.2986 0 0
17.3955 0 0
17.3955 0 0
17.4924 0 0
17.4924 0 0
17.5894 0 0
17.5894 0 0
17.6863 0 0
17.6863 0 0
17.7832 0 0
17.7832 0 0
17.8801 0 0
17.8801 0 0
17.9771 0 0
17.9771 0 0
18.074 0 0
18.074 0 0
18.1709 0 0
18.1709 0 0
18.2678 0 0
18.2678 0 0
18.3647 0 0
18.3647 0 0
18.4617 0 0
18.4617 0 0
18.5586 0 0
18.5586 0 0
18.6555 0 0
18.6555 0 0
18.7524 0 0
18.7524 0 0
18.8494 0 0
18.8494 0 0
18.9463 0 0
18.9463 0 0
19.0432 0 0
19.0432 0 0
19.1401 0 0
19.1401 0 0
19.2371 0 0
19.2371 0 0
19.334 0 0
19.334 0 0
19.4309 0 0
19.4309 0 0
19.5278 0 0
19.5278 0 0
19.6248 0 0
19.6248 0 0
19.7217 0 0
19.7217 0 0
19.8186 0 0
19.8186 0 0
19.9155 0 0
19.9155 0 0
20.0125 0 0
20.0125 0 0
20.1094 0 0
20.1094 0 0
20.2063 0 0
20.2063 0 0
20.3032 0 0
20.3032 0 0
20.4001 0 0
20.4001 0 0
20.4971 0 0
20.4971 0 0
20.594 0 0
20.594 0 0
20.6909 0 0
20.6909 0 0
20.7878 0 0
20.7878 0 0
20.8848 0 0
20.8848 0 0
20.9817 0 0
20.9817 0 0
21.0786 0 0
21.0786 0 0
21.1755 0 0
21.1755 0 0
21.2725 0 0
21.2725 0 0
21.3694 0 0
21.3694 0 0
21.4663 0 0
21.4663 0 0
21.5632 0 0
21.5632 0 0
21.6602 0 0
21.6602 0 0
21.7571 0 0
21.7571 0 0
21.854 0 0
21.854 0 0
21.9509 0 0
21.9509 0 0
22.0479 0 0
22.0479 0 0
22.1448 0 0
22.1448 0 0
22.2417 0 0
22.2417 0 0
22.3386 0 0
22.3386 0 0
22.4355 0 0
22.4355 0 0
22.5325 0 0
22.5325 0 0
22.6294 0 0
22.6294 0 0
22.7263 0 0
22.7263 0 0
22.8232 0 0
22.8232 0 0
22.9202 0 0
22.9202 0 0
23.0171 0 0
23.0171 0 0
23.114 0 0
23.114 0 0
23.2109 0 0
23.2109 0 0
23.3079 0 0
23.3079 0 0
23.4048 0 0
23.4048 0 0
23.5017 0 0
23.5017 0 0
23.5986 0 0
23.5986 0 0
23.6956 0 0
23.6956 0 0
23.7925 0 0
23.7925 0 0
23.8894 0 0
23.8894 0 0
23.9863 0 0
23.9863 0 0
24.0833 0 0
24.0833 0 0
24.1802 0 0
24.1802 0 0
24.2771 0 0
24.2771 0 0
24.374 0 0
24.374 0 0
24.4709 0 0
24.4709 0 0
24.5679 0 0
24.5679 0 0
24.6648 0 0
24.6648 0 0
24.7617 0 0
24.7617 0 0
24.8586 0 0
24.8586 0 0
24.9556 0 0
24.9556 0 0
25.0525 0 0
25.0525 0 0
25.1494 0 0
25.1494 0 0
25.2463 0 0
25.2463 0 0
25.3433 0 0
25.3433 0 0
25.4402 0 0
25.4402 0 0
25.5371 0 0
25.5371 0 0
25.634 0 0
25.634 0 0
25.731 0 0
25.731 0 0
25.8279 0 0
25.8279 0 0
25.9248 0 0
25.9248 0 0
26.0217 0 0
26.0217 0 0
26.1187 0 0
26.1187 0 0
26.2156 0 0
26.2156 0 0
26.3125 0 0
26.3125 0 0
26.4094 0 0
26.4094 0 0
26.5063 0 0
26.5063 0 0
26.6033 0 0
26.6033 0 0
26.7002 0 0
26.7002 0 0
26.7971 0 0
26.7971 0 0
26.894 0 0
26.894 0 0
26.991 0 0
26.991 0 0
27.0879 0 0
27.0879 0 0
27.1848 0 0
27.1848 0 0
27.2817 0 0
27.2817 0 0
27.3787 0 0
27.3787 0 0
27.4756 0 0
27.4756 0 0
27.5725 0 0
27.5725 0 0
27.6694 0 0
27.6694 0 0
27.7664 0 0
27.7664 0 0
27.8633 0 0
27.8633 0 0
27.9602 0 0
27.9602 0 0
28.0571 0 0
28.0571 0 0
28.1541 0 0
28.1541 0 0
28.251 0 0
28.251 0 0
28.3479 0 0
28.3479 0 0
28.4448 0 0
28.4448 0 0
28.5417 0 0
28.5417 0 0
28.6387 0 0
28.6387 0 0
28.7356 0 0
28.7356 0 0
28.8325 0 0
28.8325 0 0
28.9294 0 0
28.9294 0 0
29.0264 0 0
29.0264 0 0
29.1233 0 0
29.1233 0 0
29.2202 0 0
29.2202 0 0
29.3171 0 0
29.3171 0 0
29.4141 0 0
29.4141 0 0
29.511 0 0
29.511 0 0
29.6079 0 0
29.6079 0 0
29.7048 0 0
29.7048 0 0
29.8018 0 0
29.8018 0 0
29.8987 0 0
29.8987 0 0
29.9956 0 0
29.9956 0 0
30.0925 0 0
30.0925 0 0
30.1895 0 0
30.1895 0 0
30.2864 0 0
30.2864 0 0
30.3833 0 0
30.3833 0 0
30.4802 0 0
30.4802 0 0
30.5771 0 0
30.5771 0 0
30.6741 0 0
30.6741 0 0
30.771 0 0
30.771 0 0
30.8679 0 0
30.8679 0 0
30.9648 0 0
30.9648 0 0
31.0618 0 0
31.0618 0 0
31.1587 0 0
31.1587 0 0
31.2556 0 0
31.2556 0 0
31.3525 0 0
31.3525 0 0
31.4495 0 0
31.4495 0 0
31.5464 0 0
31.5464 0 0
31.6433 0 0
31.6433 0 0
31.7402 0 0
31.7402 0 0
31.8372 0 0
31.8372 0 0
31.9341 0 0
31.9341 0 0
32.031 0 0
32.031 0 0
32.1279 0 0
32.1279 0 0
32.2249 0 0
32.2249 0 0
32.3218 0 0
32.3218 0 0
32.4187 0 0
32.4187 0 0
32.5156 0 0
32.5156 0 0
32.6125 0 0
32.6125 0 0
32.7095 0 0
32.7095 0 0
32.8064 0 0
32.8064 0 0
32.9033 0 0
32.9033 0 0
33.0002 0 0
33.0002 0 0
33.0972 0 0
33.0972 0 0
33.1941 0 0
33.1941 0 0
33.291 0 0
33.291 0 0
33.3879 0 0
33.3879 0 0
33.4849 0 0
33.4849 0 0
33.5818 0 0
33.5818 0 0
33.6787 0 0
33.6787 0 0
33.7756 0 0
33.7756 0 0
33.8726 0 0
33.8726 0 0
33.9695 0 0
33.9695 0 0
34.0664 0 0
34.0664 0 0
34.1633 0 0
34.1633 0 0
34.2603 0 0
34.2603 0 0
34.3572 0 0
34.3572 0 0
34.4541 0 0
34.4541 0 0
34.551 0 0
34.551 0 0
34.6479 0 0
34.6479 0 0
34.7449 0 0
34.7449 0 0
34.8418 0 0
34.8418 0 0
34.9387 0 0
34.9387 0 0
35.0356 0 0
35.0356 0 0
35.1326 0 0
35.1326 0 0
35.2295 0 0
35.2295 0 0
35.3264 0 0
35.3264 0 0
35.4233 0 0
35.4233 0 0
35.5203 0 0
35.5203 0 0
35.6172 0 0
35.6172 0 0
35.7141 0 0
35.7141 0 0
35.811 0 0
35.811 0 0
35.908 0 0
35.908 0 0
36.0049 0 0
36.0049 0 0
36.1018 0 0
36.1018 0 0
36.1987 0 0
36.1987 0 0
36.2957 0 0
36.2957 0 0
36.3926 0 0
36.3926 0 0
36.4895 0 0
36.4895 0 0
36.5864 0 0
36.5864 0 0
36.6833 0 0
36.6833 0 0
36.7803 0 0
36.7803 0 0
36.8772 0 0
36.8772 0 0
36.9741 0 0
36.9741 0 0
37.071 0 0
37.071 0 0
37.168 0 0
37.168 0 0
37.2649 0 0
37.2649 0 0
37.3618 0 0
37.3618 0 0
37.4587 0 0
37.4587 0 0
37.5557 0 0
37.5557 0 0
37.6526 0 0
37.6526 0 0
37.7495 0 0
37.7495 0 0
37.8464 0 0
37.8464 0 0
37.9434 0 0
37.9434 0 0
38.0403 0 0
38.0403 0 0
38.1372 0 0
38.1372 0 0
38.2341 0 0
38.2341 0 0
38.3311 0 0
38.3311 0 0
38.428 0 0
38.428 0 0
38.5249 0 0
38.5249 0 0
38.6218 0 0
38.6218 0 0
38.7188 0 0
38.7188 0 0
38.8157 0 0
38.8157 0 0
38.9126 0 0
38.9126 0 0
39.0095 0 0
39.0095 0 0
39.1064 0 0
39.1064 0 0
39.2034 0 0
39.2034 0 0
39.3003 0 0
39.3003 0 0
39.3972 0 0
39.3972 0 0
39.4941 0 0
39.4941 0 0
39.5911 0 0
39.5911 0 0
39.688 0 0
39.688 0 0
39.7849 0 0
39.7849 0 0
39.8818 0 0
39.8818 0 0
39.9788 0 0
39.9788 0 0
40.0757 0 0
40.0757 0 0
40.1726 0 0
40.1726 0 0
40.2695 0 0
40.2695 0 0
40.3665 0 0
40.3665 0 0
40.4634 0 0
40.4634 0 0
40.5603 0 0
40.5603 0 0
40.6572 0 0
40.6572 0 0
40.7542 0 0
40.7542 0 0
40.8511 0 0
40.8511 0 0
40.948 0 0
40.948 0 0
41.0449 0 0
41.0449 0 0
41.1418 0 0
41.1418 0 0
41.2388 0 0
41.2388 0 0
41.3357 0 0
41.3357 0 0
41.4326 0 0
41.4326 0 0
41.5295 0 0
41.5295 0 0
[...]
POINT_DATA 4096
SCALARS solution_0 double 1
LOOKUP_TABLE default
1.36074e+07 1.33254e+07 1.33254e+07 1.30877e+07 1.30877e+07 1.28853e+07 1.28853e+07 1.27112e+07 1.27112e+07 1.25601e+07 1.25601e+07 1.24279e+07 1.24279e+07 1.23112e+07 1.23112e+07 1.22074e+07 1.22074e+07 1.21143e+07 1.21143e+07 1.20301e+07 1.20301e+07 1.19534e+07 1.19534e+07 1.18829e+07 1.18829e+07 1.18178e+07 1.18178e+07 1.17571e+07 1.17571e+07 1.17003e+07 1.17003e+07 1.16466e+07 1.16466e+07 1.15956e+07 1.15956e+07 1.15469e+07 1.15469e+07 1.15001e+07 1.15001e+07 1.14549e+07 1.14549e+07 1.14111e+07 1.14111e+07 1.13684e+07 1.13684e+07 1.13266e+07 1.13266e+07 1.12856e+07 1.12856e+07 1.12452e+07 1.12452e+07 1.12053e+07 1.12053e+07 1.11658e+07 1.11658e+07 1.11266e+07 1.11266e+07 1.10876e+07 1.10876e+07 1.10487e+07 1.10487e+07 1.101e+07 1.101e+07 1.09713e+07 1.09713e+07 1.09326e+07 1.09326e+07 1.08939e+07 1.08939e+07 1.08551e+07 1.08551e+07 1.08162e+07 1.08162e+07 1.07772e+07 1.07772e+07 1.07381e+07 1.07381e+07 1.06989e+07 1.06989e+07 1.06595e+07 1.06595e+07 1.06199e+07 1.06199e+07 1.05802e+07 1.05802e+07 1.05402e+07 1.05402e+07 1.05002e+07 1.05002e+07 1.04599e+07 1.04599e+07 1.04194e+07 1.04194e+07 1.03788e+07 1.03788e+07 1.0338e+07 1.0338e+07 1.0297e+07 1.0297e+07 1.02559e+07 1.02559e+07 1.02146e+07 1.02146e+07 1.01731e+07 1.01731e+07 1.01315e+07 1.01315e+07 1.00897e+07 1.00897e+07 1.00478e+07 1.00478e+07 1.00057e+07 1.00057e+07 9.96349e+06 9.96349e+06 9.92115e+06 9.92115e+06 9.8787e+06 9.8787e+06 9.83613e+06 9.83613e+06 9.79346e+06 9.79346e+06 9.75068e+06 9.75068e+06 9.70781e+06 9.70781e+06 9.66486e+06 9.66486e+06 9.62182e+06 9.62182e+06 9.57872e+06 9.57872e+06 9.53554e+06 9.53554e+06 9.49231e+06 9.49231e+06 9.44902e+06 9.44902e+06 9.40569e+06 9.40569e+06 9.36232e+06 9.36232e+06 9.31891e+06 9.31891e+06 9.27548e+06 9.27548e+06 9.23203e+06 9.23203e+06 9.18857e+06 9.18857e+06 9.1451e+06 9.1451e+06 9.10162e+06 9.10162e+06 9.05815e+06 9.05815e+06 9.01469e+06 9.01469e+06 8.97124e+06 8.97124e+06 8.92782e+06 8.92782e+06 8.88442e+06 8.88442e+06 8.84106e+06 8.84106e+06 8.79772e+06 8.79772e+06 8.75444e+06 8.75444e+06 8.71119e+06 8.71119e+06 8.668e+06 8.668e+06 8.62487e+06 8.62487e+06 8.58179e+06 8.58179e+06 8.53878e+06 8.53878e+06 8.49584e+06 8.49584e+06 8.45297e+06 8.45297e+06 8.41018e+06 8.41018e+06 8.36747e+06 8.36747e+06 8.32484e+06 8.32484e+06 8.2823e+06 8.2823e+06 8.23986e+06 8.23986e+06 8.19751e+06 8.19751e+06 8.15526e+06 8.15526e+06 8.11311e+06 8.11311e+06 8.07106e+06 8.07106e+06 8.02913e+06 8.02913e+06 7.98731e+06 7.98731e+06 7.9456e+06 7.9456e+06 7.90401e+06 7.90401e+06 7.86254e+06 7.86254e+06 7.82119e+06 7.82119e+06 7.77996e+06 7.77996e+06 7.73887e+06 7.73887e+06 7.6979e+06 7.6979e+06 7.65706e+06 7.65706e+06 7.61636e+06 7.61636e+06 7.5758e+06 7.5758e+06 7.53537e+06 7.53537e+06 7.49508e+06 7.49508e+06 7.45494e+06 7.45494e+06 7.41494e+06 7.41494e+06 7.37508e+06 7.37508e+06 7.33537e+06 7.33537e+06 7.29581e+06 7.29581e+06 7.2564e+06 7.2564e+06 7.21715e+06 7.21715e+06 7.17804e+06 7.17804e+06 7.13909e+06 7.13909e+06 7.10029e+06 7.10029e+06 7.06166e+06 7.06166e+06 7.02318e+06 7.02318e+06 6.98485e+06 6.98485e+06 6.94669e+06 6.94669e+06 6.90869e+06 6.90869e+06 6.87085e+06 6.87085e+06 6.83318e+06 6.83318e+06 6.79566e+06 6.79566e+06 6.75832e+06 6.75832e+06 6.72113e+06 6.72113e+06 6.68412e+06 6.68412e+06 6.64726e+06 6.64726e+06 6.61058e+06 6.61058e+06 6.57406e+06 6.57406e+06 6.53772e+06 6.53772e+06 6.50154e+06 6.50154e+06 6.46552e+06 6.46552e+06 6.42968e+06 6.42968e+06 6.39401e+06 6.39401e+06 6.35851e+06 6.35851e+06 6.32317e+06 6.32317e+06 6.28801e+06 6.28801e+06 6.25302e+06 6.25302e+06 6.2182e+06 6.2182e+06 6.18355e+06 6.18355e+06 6.14907e+06 6.14907e+06 6.11476e+06 6.11476e+06 6.08063e+06 6.08063e+06 6.04666e+06 6.04666e+06 6.01287e+06 6.01287e+06 5.97925e+06 5.97925e+06 5.9458e+06 5.9458e+06 5.91252e+06 5.91252e+06 5.87941e+06 5.87941e+06 5.84647e+06 5.84647e+06 5.8137e+06 5.8137e+06 5.7811e+06 5.7811e+06 5.74868e+06 5.74868e+06 5.71642e+06 5.71642e+06 5.68433e+06 5.68433e+06 5.65242e+06 5.65242e+06 5.62067e+06 5.62067e+06 5.58909e+06 5.58909e+06 5.55768e+06 5.55768e+06 5.52644e+06 5.52644e+06 5.49536e+06 5.49536e+06 5.46446e+06 5.46446e+06 5.43372e+06 5.43372e+06 5.40315e+06 5.40315e+06 5.37274e+06 5.37274e+06 5.3425e+06 5.3425e+06 5.31243e+06 5.31243e+06 5.28252e+06 5.28252e+06 5.25278e+06 5.25278e+06 5.2232e+06 5.2232e+06 5.19378e+06 5.19378e+06 5.16453e+06 5.16453e+06 5.13544e+06 5.13544e+06 5.10652e+06 5.10652e+06 5.07775e+06 5.07775e+06 5.04915e+06 5.04915e+06 5.02071e+06 5.02071e+06 4.99242e+06 4.99242e+06 4.9643e+06 4.9643e+06 4.93634e+06 4.93634e+06 4.90853e+06 4.90853e+06 4.88088e+06 4.88088e+06 4.85339e+06 4.85339e+06 4.82606e+06 4.82606e+06 4.79888e+06 4.79888e+06 4.77186e+06 4.77186e+06 4.74499e+06 4.74499e+06 4.71828e+06 4.71828e+06 4.69172e+06 4.69172e+06 4.66531e+06 4.66531e+06 4.63906e+06 4.63906e+06 4.61295e+06 4.61295e+06 4.587e+06 4.587e+06 4.5612e+06 4.5612e+06 4.53555e+06 4.53555e+06 4.51004e+06 4.51004e+06 4.48469e+06 4.48469e+06 4.45948e+06 4.45948e+06 4.43442e+06 4.43442e+06 4.40951e+06 4.40951e+06 4.38474e+06 4.38474e+06 4.36011e+06 4.36011e+06 4.33563e+06 4.33563e+06 4.3113e+06 4.3113e+06 4.2871e+06 4.2871e+06 4.26305e+06 4.26305e+06 4.23914e+06 4.23914e+06 4.21538e+06 4.21538e+06 4.19175e+06 4.19175e+06 4.16826e+06 4.16826e+06 4.1449e+06 4.1449e+06 4.12169e+06 4.12169e+06 4.09861e+06 4.09861e+06 4.07567e+06 4.07567e+06 4.05287e+06 4.05287e+06 4.0302e+06 4.0302e+06 4.00767e+06 4.00767e+06 3.98527e+06 3.98527e+06 3.963e+06 3.963e+06 3.94086e+06 3.94086e+06 3.91886e+06 3.91886e+06 3.89698e+06 3.89698e+06 3.87524e+06 3.87524e+06 3.85362e+06 3.85362e+06 3.83214e+06 3.83214e+06 3.81078e+06 3.81078e+06 3.78955e+06 3.78955e+06 3.76845e+06 3.76845e+06 3.74747e+06 3.74747e+06 3.72662e+06 3.72662e+06 3.70589e+06 3.70589e+06 3.68528e+06 3.68528e+06 3.6648e+06 3.6648e+06 3.64444e+06 3.64444e+06 3.6242e+06 3.6242e+06 3.60409e+06 3.60409e+06 3.58409e+06 3.58409e+06 3.56421e+06 3.56421e+06 3.54445e+06 3.54445e+06 3.52481e+06 3.52481e+06 3.50529e+06 3.50529e+06 3.48588e+06 3.48588e+06 3.46659e+06 3.46659e+06 3.44742e+06 3.44742e+06 3.42836e+06 3.42836e+06 3.40941e+06 3.40941e+06 3.39058e+06 3.39058e+06 3.37186e+06 3.37186e+06 3.35325e+06 3.35325e+06 3.33476e+06 3.33476e+06 3.31637e+06 3.31637e+06 3.29809e+06 3.29809e+06 3.27993e+06 3.27993e+06 3.26187e+06 3.26187e+06 3.24392e+06 3.24392e+06 3.22608e+06 3.22608e+06 3.20834e+06 3.20834e+06 3.19071e+06 3.19071e+06 3.17319e+06 3.17319e+06 3.15577e+06 3.15577e+06 3.13845e+06 3.13845e+06 3.12124e+06 3.12124e+06 3.10413e+06 3.10413e+06 3.08712e+06 3.08712e+06 3.07022e+06 3.07022e+06 3.05341e+06 3.05341e+06 3.03671e+06 3.03671e+06 3.0201e+06 3.0201e+06 3.0036e+06 3.0036e+06 2.98719e+06 2.98719e+06 2.97088e+06 2.97088e+06 2.95467e+06 2.95467e+06 2.93856e+06 2.93856e+06 2.92254e+06 2.92254e+06 2.90661e+06 2.90661e+06 2.89078e+06 2.89078e+06 2.87505e+06 2.87505e+06 2.85941e+06 2.85941e+06 2.84386e+06 2.84386e+06 2.8284e+06 2.8284e+06 2.81304e+06 2.81304e+06 2.79777e+06 2.79777e+06 2.78259e+06 2.78259e+06 2.76749e+06 2.76749e+06 2.75249e+06 2.75249e+06 2.73758e+06 2.73758e+06 2.72275e+06 2.72275e+06 2.70802e+06 2.70802e+06 2.69337e+06 2.69337e+06 2.6788e+06 2.6788e+06 2.66432e+06 2.66432e+06 2.64993e+06 2.64993e+06 2.63563e+06 2.63563e+06 2.6214e+06 2.6214e+06 2.60727e+06 2.60727e+06 2.59321e+06 2.59321e+06 2.57924e+06 2.57924e+06 2.56535e+06 2.56535e+06 2.55154e+06 2.55154e+06 2.53782e+06 2.53782e+06 2.52417e+06 2.52417e+06 2.5106e+06 2.5106e+06 2.49712e+06 2.49712e+06 2.48371e+06 2.48371e+06 2.47038e+06 2.47038e+06 2.45713e+06 2.45713e+06 2.44396e+06 2.44396e+06 2.43087e+06 2.43087e+06 2.41785e+06 2.41785e+06 2.40491e+06 2.40491e+06 2.39204e+06 2.39204e+06 2.37925e+06 2.37925e+06 2.36653e+06 2.36653e+06 2.35389e+06 2.35389e+06 2.34132e+06 2.34132e+06 2.32883e+06 2.32883e+06 2.3164e+06 2.3164e+06 2.30405e+06 2.30405e+06 2.29177e+06 2.29177e+06 2.27957e+06 2.27957e+06 2.26743e+06 2.26743e+06 2.25536e+06 2.25536e+06 2.24337e+06 2.24337e+06 2.23144e+06 2.23144e+06 2.21958e+06 2.21958e+06 2.20779e+06 2.20779e+06 2.19607e+06 2.19607e+06 2.18442e+06 2.18442e+06 2.17283e+06 2.17283e+06 2.16131e+06 2.16131e+06 2.14986e+06 2.14986e+06 2.13847e+06 2.13847e+06 2.12715e+06 2.12715e+06 2.1159e+06 2.1159e+06 2.1047e+06 2.1047e+06 2.09358e+06 2.09358e+06 2.08251e+06 2.08251e+06 2.07151e+06 2.07151e+06 2.06057e+06 2.06057e+06 2.0497e+06 2.0497e+06 2.03889e+06 2.03889e+06 2.02814e+06 2.02814e+06 2.01745e+06 2.01745e+06 2.00682e+06 2.00682e+06 1.99625e+06 1.99625e+06 1.98574e+06 1.98574e+06 1.97529e+06 1.97529e+06 1.9649e+06 1.9649e+06 1.95457e+06 1.95457e+06 1.9443e+06 1.9443e+06 1.93409e+06 1.93409e+06 1.92393e+06 1.92393e+06 1.91383e+06 1.91383e+06 1.90379e+06 1.90379e+06 1.89381e+06 1.89381e+06 1.88388e+06 1.88388e+06 1.87401e+06 1.87401e+06 1.86419e+06 1.86419e+06 1.85443e+06 1.85443e+06 1.84472e+06 1.84472e+06 1.83507e+06 1.83507e+06 1.82547e+06 1.82547e+06 1.81593e+06 1.81593e+06 1.80644e+06 1.80644e+06 1.797e+06 1.797e+06 1.78761e+06 1.78761e+06 1.77828e+06 1.77828e+06 1.769e+06 1.769e+06 1.75977e+06 1.75977e+06 1.75059e+06 1.75059e+06 1.74146e+06 1.74146e+06 1.73239e+06 1.73239e+06 1.72336e+06 1.72336e+06 1.71439e+06 1.71439e+06 1.70546e+06 1.70546e+06 1.69659e+06 1.69659e+06 1.68776e+06 1.68776e+06 1.67898e+06 1.67898e+06 1.67025e+06 1.67025e+06 1.66157e+06 1.66157e+06 1.65293e+06 1.65293e+06 1.64435e+06 1.64435e+06 1.63581e+06 1.63581e+06 1.62731e+06 1.62731e+06 1.61887e+06 1.61887e+06 1.61047e+06 1.61047e+06 1.60211e+06 1.60211e+06 1.5938e+06 1.5938e+06 1.58554e+06 1.58554e+06 1.57732e+06 1.57732e+06 1.56915e+06 1.56915e+06 1.56102e+06 1.56102e+06 1.55294e+06 1.55294e+06 1.5449e+06 1.5449e+06 1.5369e+06 1.5369e+06 1.52894e+06 1.52894e+06 1.52103e+06 1.52103e+06 1.51317e+06 1.51317e+06 1.50534e+06 1.50534e+06 1.49756e+06 1.49756e+06 1.48982e+06 1.48982e+06 1.48212e+06 1.48212e+06 1.47446e+06 1.47446e+06 1.46684e+06 1.46684e+06 1.45927e+06 1.45927e+06 1.45173e+06 1.45173e+06 1.44424e+06 1.44424e+06 1.43678e+06 1.43678e+06 1.42937e+06 1.42937e+06 1.42199e+06 1.42199e+06 1.41466e+06 1.41466e+06 1.40736e+06 1.40736e+06 1.4001e+06 1.4001e+06 1.39288e+06 1.39288e+06 1.3857e+06 1.3857e+06 1.37856e+06 1.37856e+06 1.37145e+06 1.37145e+06 1.36439e+06 1.36439e+06 1.35736e+06 1.35736e+06 1.35036e+06 1.35036e+06 1.34341e+06 1.34341e+06 1.33649e+06 1.33649e+06 1.3296e+06 1.3296e+06 1.32276e+06 1.32276e+06 1.31595e+06 1.31595e+06 1.30917e+06 1.30917e+06 1.30243e+06 1.30243e+06 1.29573e+06 1.29573e+06 1.28906e+06 1.28906e+06 1.28243e+06 1.28243e+06 1.27583e+06 1.27583e+06 1.26926e+06 1.26926e+06 1.26273e+06 1.26273e+06 1.25623e+06 1.25623e+06 1.24977e+06 1.24977e+06 1.24334e+06 1.24334e+06 1.23694e+06 1.23694e+06 1.23058e+06 1.23058e+06 1.22425e+06 1.22425e+06 1.21795e+06 1.21795e+06 1.21169e+06 1.21169e+06 1.20546e+06 1.20546e+06 1.19926e+06 1.19926e+06 1.19309e+06 1.19309e+06 1.18695e+06 1.18695e+06 1.18084e+06 1.18084e+06 1.17477e+06 1.17477e+06 1.16873e+06 1.16873e+06 1.16272e+06 1.16272e+06 1.15673e+06 1.15673e+06 1.15078e+06 1.15078e+06 1.14486e+06 1.14486e+06 1.13897e+06 1.13897e+06 1.13311e+06 1.13311e+06 1.12728e+06 1.12728e+06 1.12148e+06 1.12148e+06 1.11571e+06 1.11571e+06 1.10997e+06 1.10997e+06 1.10425e+06 1.10425e+06 1.09857e+06 1.09857e+06 1.09291e+06 1.09291e+06 1.08729e+06 1.08729e+06 1.08169e+06 1.08169e+06 1.07612e+06 1.07612e+06 1.07058e+06 1.07058e+06 1.06506e+06 1.06506e+06 1.05957e+06 1.05957e+06 1.05411e+06 1.05411e+06 1.04868e+06 1.04868e+06 1.04328e+06 1.04328e+06 1.0379e+06 1.0379e+06 1.03255e+06 1.03255e+06 1.02722e+06 1.02722e+06 1.02192e+06 1.02192e+06 1.01665e+06 1.01665e+06 1.01141e+06 1.01141e+06 1.00619e+06 1.00619e+06 1.00099e+06 1.00099e+06 995824 995824 990682 990682 985565 985565 980472 980472 975406 975406 970363 970363 965346 965346 960354 960354 955385 955385 950442 950442 945522 945522 940626 940626 935754 935754 930906 930906 926082 926082 921281 921281 916503 916503 911749 911749 907018 907018 902309 902309 897623 897623 892960 892960 888320 888320 883701 883701 879105 879105 874532 874532 869980 869980 865450 865450 860941 860941 856454 856454 851989 851989 847545 847545 843122 843122 838720 838720 834339 834339 829980 829980 825640 825640 821322 821322 817023 817023 812745 812745 808488 808488 804250 804250 800033 800033 795835 795835 791657 791657 787499 787499 783360 783360 779240 779240 775140 775140 771059 771059 766998 766998 762955 762955 758931 758931 754926 754926 750939 750939 746971 746971 743021 743021 739090 739090 735177 735177 731282 731282 727405 727405 723546 723546 719704 719704 715881 715881 712075 712075 708286 708286 704515 704515 700761 700761 697025 697025 693305 693305 689603 689603 685917 685917 682248 682248 678596 678596 674961 674961 671342 671342 667739 667739 664153 664153 660583 660583 657030 657030 653492 653492 649970 649970 646464 646464 642974 642974 639500 639500 636041 636041 632598 632598 629171 629171 625758 625758 622361 622361 618979 618979 615613 615613 612261 612261 608924 608924 605602 605602 602295 602295 599003 599003 595725 595725 592461 592461 589213 589213 585978 585978 582758 582758 579552 579552 576360 576360 573182 573182 570019 570019 566869 566869 563733 563733 560610 560610 557502 557502 554407 554407 551325 551325 548257 548257 545203 545203 542161 542161 539133 539133 536118 536118 533116 533116 530128 530128 527152 527152 524189 524189 521239 521239 518302 518302 515377 515377 512465 512465 509565 509565 506678 506678 503804 503804 500941 500941 498091 498091 495254 495254 492428 492428 489614 489614 486813 486813 484023 484023 481246 481246 478480 478480 475726 475726 472983 472983 470253 470253 467533 467533 464826 464826 462130 462130 459445 459445 456771 456771 454109 454109 451458 451458 448819 448819 446190 446190 443572 443572 440966 440966 438370 438370 435785 435785 433211 433211 430648 430648 428096 428096 425554 425554 423023 423023 420502 420502 417992 417992 415492 415492 413003 413003 410524 410524 408055 408055 405596 405596 403148 403148 400710 400710 398281 398281 395863 395863 393455 393455 391057 391057 388668 388668 386289 386289 383921 383921 381561 381561 379212 379212 376872 376872 374542 374542 372221 372221 369909 369909 367608 367608 365315 365315 363032 363032 360758 360758 358493 358493 356238 356238 353991 353991 351754 351754 349526 349526 347306 347306 345096 345096 342895 342895 340702 340702 338519 338519 336344 336344 334178 334178 332020 332020 329871 329871 327731 327731 325600 325600 323476 323476 321362 321362 319256 319256 317158 317158 315068 315068 312987 312987 310915 310915 308850 308850 306794 306794 304745 304745 302705 302705 300673 300673 298649 298649 296633 296633 294625 294625 292625 292625 290633 290633 288648 288648 286672 286672 284703 284703 282742 282742 280789 280789 278843 278843 276905 276905 274974 274974 273051 273051 271136 271136 269228 269228 267327 267327 265434 265434 263548 263548 261670 261670 259798 259798 257935 257935 256078 256078 254228 254228 252386 252386 250551 250551 248723 248723 246902 246902 245088 245088 243281 243281 241480 241480 239687 239687 237901 237901 236122 236122 234349 234349 232583 232583 230824 230824 229072 229072 227326 227326 225588 225588 223855 223855 222130 222130 220410 220410 218698 218698 216992 216992 215292 215292 213599 213599 211913 211913 210232 210232 208558 208558 206891 206891 205230 205230 203575 203575 201926 201926 200283 200283 198647 198647 197017 197017 195393 195393 193775 193775 192163 192163 190557 190557 188958 188958 187364 187364 185776 185776 184194 184194 182618 182618 181048 181048 179484 179484 177926 177926 176373 176373 174827 174827 173286 173286 171750 171750 170221 170221 168697 168697 167179 167179 165666 165666 164159 164159 162658 162658 161162 161162 159671 159671 158187 158187 156707 156707 155233 155233 153765 153765 152302 152302 150844 150844 149392 149392 147945 147945 146503 146503 145067 145067 143635 143635 142209 142209 140789 140789 139373 139373 137963 137963 136558 136558 135158 135158 133763 133763 132373 132373 130988 130988 129608 129608 128233 128233 126864 126864 125499 125499 124139 124139 122784 122784 121434 121434 120089 120089 118748 118748 117413 117413 116082 116082 114757 114757 113435 113435 112119 112119 110808 110808 109501 109501 108199 108199 106901 106901 105608 105608 104320 104320 103036 103036 101758 101758 100483 100483 99213.2 99213.2 97947.9 97947.9 96687.1 96687.1 95430.8 95430.8 94179 94179 92931.7 92931.7 91688.7 91688.7 90450.2 90450.2 89216.1 89216.1 87986.4 87986.4 86761.1 86761.1 85540.1 85540.1 84323.4 84323.4 83111 83111 81903 81903 80699.2 80699.2 79499.6 79499.6 78304.3 78304.3 77113.3 77113.3 75926.4 75926.4 74743.7 74743.7 73565.1 73565.1 72390.8 72390.8 71220.5 71220.5 70054.4 70054.4 68892.4 68892.4 67734.4 67734.4 66580.5 66580.5 65430.7 65430.7 64284.8 64284.8 63143 63143 62005.2 62005.2 60871.4 60871.4 59741.5 59741.5 58615.6 58615.6 57493.6 57493.6 56375.5 56375.5 55261.3 55261.3 54151 54151 53044.6 53044.6 51942 51942 50843.3 50843.3 49748.3 49748.3 48657.2 48657.2 47569.9 47569.9 46486.3 46486.3 45406.5 45406.5 44330.4 44330.4 43258 43258 42189.4 42189.4 41124.4 41124.4 40063.2 40063.2 39005.5 39005.5 37951.6 37951.6 36901.3 36901.3 35854.6 35854.6 34811.4 34811.4 33771.9 33771.9 32736 32736 31703.6 31703.6 30674.8 30674.8 29649.5 29649.5 28627.7 28627.7 27609.4 27609.4 26594.7 26594.7 25583.3 25583.3 24575.5 24575.5 23571.1 23571.1 22570.1 22570.1 21572.6 21572.6 20578.4 20578.4 19587.7 19587.7 18600.3 18600.3 17616.3 17616.3 16635.6 16635.6 15658.3 15658.3 14684.3 14684.3 13713.6 13713.6 12746.3 12746.3 11782.2 11782.2 10821.3 10821.3 9863.77 9863.77 8909.45 8909.45 7958.36 7958.36 7010.5 7010.5 6065.84 6065.84 5124.38 5124.38 4186.1 4186.1 3250.99 3250.99 2319.04 2319.04 1390.23 1390.23 464.553 464.553 -458.001 -458.001 -1377.45 -1377.45 -2293.8 -2293.8 -3207.07 -3207.07 -4117.26 -4117.26 -5024.4 -5024.4 -5928.49 -5928.49 -6829.54 -6829.54 -7727.57 -7727.57 -8622.59 -8622.59 -9514.61 -9514.61 -10403.6 -10403.6 -11289.7 -11289.7 -12172.8 -12172.8 -13052.9 -13052.9 -13930.1 -13930.1 -14804.4 -14804.4 -15675.7 -15675.7 -16544.1 -16544.1 -17409.7 -17409.7 -18272.3 -18272.3 -19132.1 -19132.1 -19989 -19989 -20843.1 -20843.1 -21694.3 -21694.3 -22542.7 -22542.7 -23388.3 -23388.3 -24231 -24231 -25071 -25071 -25908.2 -25908.2 -26742.6 -26742.6 -27574.2 -27574.2 -28403.1 -28403.1 -29229.2 -29229.2 -30052.6 -30052.6 -30873.3 -30873.3 -31691.3 -31691.3 -32506.5 -32506.5 -33319.1 -33319.1 -34129 -34129 -34936.2 -34936.2 -35740.8 -35740.8 -36542.7 -36542.7 -37341.9 -37341.9 -38138.6 -38138.6 -38932.6 -38932.6 -39724 -39724 -40512.8 -40512.8 -41299 -41299 -42082.6 -42082.6 -42863.6 -42863.6 -43642.1 -43642.1 -44418 -44418 -45191.4 -45191.4 -45962.3 -45962.3 -46730.6 -46730.6 -47496.4 -47496.4 -48259.7 -48259.7 -49020.5 -49020.5 -49778.9 -49778.9 -50534.7 -50534.7 -51288.1 -51288.1 -52039 -52039 -52787.5 -52787.5 -53533.5 -53533.5 -54277.1 -54277.1 -55018.3 -55018.3 -55757 -55757 -56493.4 -56493.4 -57227.4 -57227.4 -57958.9 -57958.9 -58688.1 -58688.1 -59415 -59415 -60139.4 -60139.4 -60861.6 -60861.6 -61581.3 -61581.3 -62298.8 -62298.8 -63013.9 -63013.9 -63726.7 -63726.7 -64437.2 -64437.2 -65145.4 -65145.4 -65851.2 -65851.2 -66554.9 -66554.9 -67256.2 -67256.2 -67955.3 -67955.3 -68652.1 -68652.1 -69346.7 -69346.7 -70039 -70039 -70729.1 -70729.1 -71416.9 -71416.9 -72102.6 -72102.6 -72786 -72786 -73467.3 -73467.3 -74146.3 -74146.3 -74823.2 -74823.2 -75497.9 -75497.9 -76170.4 -76170.4 -76840.8 -76840.8 -77509 -77509 -78175 -78175 -78838.9 -78838.9 -79500.7 -79500.7 -80160.4 -80160.4 -80818 -80818 -81473.4 -81473.4 -82126.8 -82126.8 -82778 -82778 -83427.2 -83427.2 -84074.3 -84074.3 -84719.3 -84719.3 -85362.3 -85362.3 -86003.2 -86003.2 -86642.1 -86642.1 -87278.9 -87278.9 -87913.7 -87913.7 -88546.5 -88546.5 -89177.3 -89177.3 -89806 -89806 -90432.8 -90432.8 -91057.5 -91057.5 -91680.3 -91680.3 -92301 -92301 -92919.9 -92919.9 -93536.7 -93536.7 -94151.5 -94151.5 -9476