# vtk DataFile Version 3.0
#This file was generated by the deal.II library on 2020/9/6 at 2:47:23
ASCII
DATASET UNSTRUCTURED_GRID

POINTS 4096 double
1.5 0 0
1.59692 0 0
1.59692 0 0
1.69385 0 0
1.69385 0 0
1.79077 0 0
1.79077 0 0
1.8877 0 0
1.8877 0 0
1.98462 0 0
1.98462 0 0
2.08154 0 0
2.08154 0 0
2.17847 0 0
2.17847 0 0
2.27539 0 0
2.27539 0 0
2.37231 0 0
2.37231 0 0
2.46924 0 0
2.46924 0 0
2.56616 0 0
2.56616 0 0
2.66309 0 0
2.66309 0 0
2.76001 0 0
2.76001 0 0
2.85693 0 0
2.85693 0 0
2.95386 0 0
2.95386 0 0
3.05078 0 0
3.05078 0 0
3.14771 0 0
3.14771 0 0
3.24463 0 0
3.24463 0 0
3.34155 0 0
3.34155 0 0
3.43848 0 0
3.43848 0 0
3.5354 0 0
3.5354 0 0
3.63232 0 0
3.63232 0 0
3.72925 0 0
3.72925 0 0
3.82617 0 0
3.82617 0 0
3.9231 0 0
3.9231 0 0
4.02002 0 0
4.02002 0 0
4.11694 0 0
4.11694 0 0
4.21387 0 0
4.21387 0 0
4.31079 0 0
4.31079 0 0
4.40771 0 0
4.40771 0 0
4.50464 0 0
4.50464 0 0
4.60156 0 0
4.60156 0 0
4.69849 0 0
4.69849 0 0
4.79541 0 0
4.79541 0 0
4.89233 0 0
4.89233 0 0
4.98926 0 0
4.98926 0 0
5.08618 0 0
5.08618 0 0
5.18311 0 0
5.18311 0 0
5.28003 0 0
5.28003 0 0
5.37695 0 0
5.37695 0 0
5.47388 0 0
5.47388 0 0
5.5708 0 0
5.5708 0 0
5.66772 0 0
5.66772 0 0
5.76465 0 0
5.76465 0 0
5.86157 0 0
5.86157 0 0
5.9585 0 0
5.9585 0 0
6.05542 0 0
6.05542 0 0
6.15234 0 0
6.15234 0 0
6.24927 0 0
6.24927 0 0
6.34619 0 0
6.34619 0 0
6.44312 0 0
6.44312 0 0
6.54004 0 0
6.54004 0 0
6.63696 0 0
6.63696 0 0
6.73389 0 0
6.73389 0 0
6.83081 0 0
6.83081 0 0
6.92773 0 0
6.92773 0 0
7.02466 0 0
7.02466 0 0
7.12158 0 0
7.12158 0 0
7.21851 0 0
7.21851 0 0
7.31543 0 0
7.31543 0 0
7.41235 0 0
7.41235 0 0
7.50928 0 0
7.50928 0 0
7.6062 0 0
7.6062 0 0
7.70312 0 0
7.70312 0 0
7.80005 0 0
7.80005 0 0
7.89697 0 0
7.89697 0 0
7.9939 0 0
7.9939 0 0
8.09082 0 0
8.09082 0 0
8.18774 0 0
8.18774 0 0
8.28467 0 0
8.28467 0 0
8.38159 0 0
8.38159 0 0
8.47852 0 0
8.47852 0 0
8.57544 0 0
8.57544 0 0
8.67236 0 0
8.67236 0 0
8.76929 0 0
8.76929 0 0
8.86621 0 0
8.86621 0 0
8.96313 0 0
8.96313 0 0
9.06006 0 0
9.06006 0 0
9.15698 0 0
9.15698 0 0
9.25391 0 0
9.25391 0 0
9.35083 0 0
9.35083 0 0
9.44775 0 0
9.44775 0 0
9.54468 0 0
9.54468 0 0
9.6416 0 0
9.6416 0 0
9.73853 0 0
9.73853 0 0
9.83545 0 0
9.83545 0 0
9.93237 0 0
9.93237 0 0
10.0293 0 0
10.0293 0 0
10.1262 0 0
10.1262 0 0
10.2231 0 0
10.2231 0 0
10.3201 0 0
10.3201 0 0
10.417 0 0
10.417 0 0
10.5139 0 0
10.5139 0 0
10.6108 0 0
10.6108 0 0
10.7078 0 0
10.7078 0 0
10.8047 0 0
10.8047 0 0
10.9016 0 0
10.9016 0 0
10.9985 0 0
10.9985 0 0
11.0955 0 0
11.0955 0 0
11.1924 0 0
11.1924 0 0
11.2893 0 0
11.2893 0 0
11.3862 0 0
11.3862 0 0
11.4832 0 0
11.4832 0 0
11.5801 0 0
11.5801 0 0
11.677 0 0
11.677 0 0
11.7739 0 0
11.7739 0 0
11.8708 0 0
11.8708 0 0
11.9678 0 0
11.9678 0 0
12.0647 0 0
12.0647 0 0
12.1616 0 0
12.1616 0 0
12.2585 0 0
12.2585 0 0
12.3555 0 0
12.3555 0 0
12.4524 0 0
12.4524 0 0
12.5493 0 0
12.5493 0 0
12.6462 0 0
12.6462 0 0
12.7432 0 0
12.7432 0 0
12.8401 0 0
12.8401 0 0
12.937 0 0
12.937 0 0
13.0339 0 0
13.0339 0 0
13.1309 0 0
13.1309 0 0
13.2278 0 0
13.2278 0 0
13.3247 0 0
13.3247 0 0
13.4216 0 0
13.4216 0 0
13.5186 0 0
13.5186 0 0
13.6155 0 0
13.6155 0 0
13.7124 0 0
13.7124 0 0
13.8093 0 0
13.8093 0 0
13.9062 0 0
13.9062 0 0
14.0032 0 0
14.0032 0 0
14.1001 0 0
14.1001 0 0
14.197 0 0
14.197 0 0
14.2939 0 0
14.2939 0 0
14.3909 0 0
14.3909 0 0
14.4878 0 0
14.4878 0 0
14.5847 0 0
14.5847 0 0
14.6816 0 0
14.6816 0 0
14.7786 0 0
14.7786 0 0
14.8755 0 0
14.8755 0 0
14.9724 0 0
14.9724 0 0
15.0693 0 0
15.0693 0 0
15.1663 0 0
15.1663 0 0
15.2632 0 0
15.2632 0 0
15.3601 0 0
15.3601 0 0
15.457 0 0
15.457 0 0
15.554 0 0
15.554 0 0
15.6509 0 0
15.6509 0 0
15.7478 0 0
15.7478 0 0
15.8447 0 0
15.8447 0 0
15.9417 0 0
15.9417 0 0
16.0386 0 0
16.0386 0 0
16.1355 0 0
16.1355 0 0
16.2324 0 0
16.2324 0 0
16.3293 0 0
16.3293 0 0
16.4263 0 0
16.4263 0 0
16.5232 0 0
16.5232 0 0
16.6201 0 0
16.6201 0 0
16.717 0 0
16.717 0 0
16.814 0 0
16.814 0 0
16.9109 0 0
16.9109 0 0
17.0078 0 0
17.0078 0 0
17.1047 0 0
17.1047 0 0
17.2017 0 0
17.2017 0 0
17.2986 0 0
17.2986 0 0
17.3955 0 0
17.3955 0 0
17.4924 0 0
17.4924 0 0
17.5894 0 0
17.5894 0 0
17.6863 0 0
17.6863 0 0
17.7832 0 0
17.7832 0 0
17.8801 0 0
17.8801 0 0
17.9771 0 0
17.9771 0 0
18.074 0 0
18.074 0 0
18.1709 0 0
18.1709 0 0
18.2678 0 0
18.2678 0 0
18.3647 0 0
18.3647 0 0
18.4617 0 0
18.4617 0 0
18.5586 0 0
18.5586 0 0
18.6555 0 0
18.6555 0 0
18.7524 0 0
18.7524 0 0
18.8494 0 0
18.8494 0 0
18.9463 0 0
18.9463 0 0
19.0432 0 0
19.0432 0 0
19.1401 0 0
19.1401 0 0
19.2371 0 0
19.2371 0 0
19.334 0 0
19.334 0 0
19.4309 0 0
19.4309 0 0
19.5278 0 0
19.5278 0 0
19.6248 0 0
19.6248 0 0
19.7217 0 0
19.7217 0 0
19.8186 0 0
19.8186 0 0
19.9155 0 0
19.9155 0 0
20.0125 0 0
20.0125 0 0
20.1094 0 0
20.1094 0 0
20.2063 0 0
20.2063 0 0
20.3032 0 0
20.3032 0 0
20.4001 0 0
20.4001 0 0
20.4971 0 0
20.4971 0 0
20.594 0 0
20.594 0 0
20.6909 0 0
20.6909 0 0
20.7878 0 0
20.7878 0 0
20.8848 0 0
20.8848 0 0
20.9817 0 0
20.9817 0 0
21.0786 0 0
21.0786 0 0
21.1755 0 0
21.1755 0 0
21.2725 0 0
21.2725 0 0
21.3694 0 0
21.3694 0 0
21.4663 0 0
21.4663 0 0
21.5632 0 0
21.5632 0 0
21.6602 0 0
21.6602 0 0
21.7571 0 0
21.7571 0 0
21.854 0 0
21.854 0 0
21.9509 0 0
21.9509 0 0
22.0479 0 0
22.0479 0 0
22.1448 0 0
22.1448 0 0
22.2417 0 0
22.2417 0 0
22.3386 0 0
22.3386 0 0
22.4355 0 0
22.4355 0 0
22.5325 0 0
22.5325 0 0
22.6294 0 0
22.6294 0 0
22.7263 0 0
22.7263 0 0
22.8232 0 0
22.8232 0 0
22.9202 0 0
22.9202 0 0
23.0171 0 0
23.0171 0 0
23.114 0 0
23.114 0 0
23.2109 0 0
23.2109 0 0
23.3079 0 0
23.3079 0 0
23.4048 0 0
23.4048 0 0
23.5017 0 0
23.5017 0 0
23.5986 0 0
23.5986 0 0
23.6956 0 0
23.6956 0 0
23.7925 0 0
23.7925 0 0
23.8894 0 0
23.8894 0 0
23.9863 0 0
23.9863 0 0
24.0833 0 0
24.0833 0 0
24.1802 0 0
24.1802 0 0
24.2771 0 0
24.2771 0 0
24.374 0 0
24.374 0 0
24.4709 0 0
24.4709 0 0
24.5679 0 0
24.5679 0 0
24.6648 0 0
24.6648 0 0
24.7617 0 0
24.7617 0 0
24.8586 0 0
24.8586 0 0
24.9556 0 0
24.9556 0 0
25.0525 0 0
25.0525 0 0
25.1494 0 0
25.1494 0 0
25.2463 0 0
25.2463 0 0
25.3433 0 0
25.3433 0 0
25.4402 0 0
25.4402 0 0
25.5371 0 0
25.5371 0 0
25.634 0 0
25.634 0 0
25.731 0 0
25.731 0 0
25.8279 0 0
25.8279 0 0
25.9248 0 0
25.9248 0 0
26.0217 0 0
26.0217 0 0
26.1187 0 0
26.1187 0 0
26.2156 0 0
26.2156 0 0
26.3125 0 0
26.3125 0 0
26.4094 0 0
26.4094 0 0
26.5063 0 0
26.5063 0 0
26.6033 0 0
26.6033 0 0
26.7002 0 0
26.7002 0 0
26.7971 0 0
26.7971 0 0
26.894 0 0
26.894 0 0
26.991 0 0
26.991 0 0
27.0879 0 0
27.0879 0 0
27.1848 0 0
27.1848 0 0
27.2817 0 0
27.2817 0 0
27.3787 0 0
27.3787 0 0
27.4756 0 0
27.4756 0 0
27.5725 0 0
27.5725 0 0
27.6694 0 0
27.6694 0 0
27.7664 0 0
27.7664 0 0
27.8633 0 0
27.8633 0 0
27.9602 0 0
27.9602 0 0
28.0571 0 0
28.0571 0 0
28.1541 0 0
28.1541 0 0
28.251 0 0
28.251 0 0
28.3479 0 0
28.3479 0 0
28.4448 0 0
28.4448 0 0
28.5417 0 0
28.5417 0 0
28.6387 0 0
28.6387 0 0
28.7356 0 0
28.7356 0 0
28.8325 0 0
28.8325 0 0
28.9294 0 0
28.9294 0 0
29.0264 0 0
29.0264 0 0
29.1233 0 0
29.1233 0 0
29.2202 0 0
29.2202 0 0
29.3171 0 0
29.3171 0 0
29.4141 0 0
29.4141 0 0
29.511 0 0
29.511 0 0
29.6079 0 0
29.6079 0 0
29.7048 0 0
29.7048 0 0
29.8018 0 0
29.8018 0 0
29.8987 0 0
29.8987 0 0
29.9956 0 0
29.9956 0 0
30.0925 0 0
30.0925 0 0
30.1895 0 0
30.1895 0 0
30.2864 0 0
30.2864 0 0
30.3833 0 0
30.3833 0 0
30.4802 0 0
30.4802 0 0
30.5771 0 0
30.5771 0 0
30.6741 0 0
30.6741 0 0
30.771 0 0
30.771 0 0
30.8679 0 0
30.8679 0 0
30.9648 0 0
30.9648 0 0
31.0618 0 0
31.0618 0 0
31.1587 0 0
31.1587 0 0
31.2556 0 0
31.2556 0 0
31.3525 0 0
31.3525 0 0
31.4495 0 0
31.4495 0 0
31.5464 0 0
31.5464 0 0
31.6433 0 0
31.6433 0 0
31.7402 0 0
31.7402 0 0
31.8372 0 0
31.8372 0 0
31.9341 0 0
31.9341 0 0
32.031 0 0
32.031 0 0
32.1279 0 0
32.1279 0 0
32.2249 0 0
32.2249 0 0
32.3218 0 0
32.3218 0 0
32.4187 0 0
32.4187 0 0
32.5156 0 0
32.5156 0 0
32.6125 0 0
32.6125 0 0
32.7095 0 0
32.7095 0 0
32.8064 0 0
32.8064 0 0
32.9033 0 0
32.9033 0 0
33.0002 0 0
33.0002 0 0
33.0972 0 0
33.0972 0 0
33.1941 0 0
33.1941 0 0
33.291 0 0
33.291 0 0
33.3879 0 0
33.3879 0 0
33.4849 0 0
33.4849 0 0
33.5818 0 0
33.5818 0 0
33.6787 0 0
33.6787 0 0
33.7756 0 0
33.7756 0 0
33.8726 0 0
33.8726 0 0
33.9695 0 0
33.9695 0 0
34.0664 0 0
34.0664 0 0
34.1633 0 0
34.1633 0 0
34.2603 0 0
34.2603 0 0
34.3572 0 0
34.3572 0 0
34.4541 0 0
34.4541 0 0
34.551 0 0
34.551 0 0
34.6479 0 0
34.6479 0 0
34.7449 0 0
34.7449 0 0
34.8418 0 0
34.8418 0 0
34.9387 0 0
34.9387 0 0
35.0356 0 0
35.0356 0 0
35.1326 0 0
35.1326 0 0
35.2295 0 0
35.2295 0 0
35.3264 0 0
35.3264 0 0
35.4233 0 0
35.4233 0 0
35.5203 0 0
35.5203 0 0
35.6172 0 0
35.6172 0 0
35.7141 0 0
35.7141 0 0
35.811 0 0
35.811 0 0
35.908 0 0
35.908 0 0
36.0049 0 0
36.0049 0 0
36.1018 0 0
36.1018 0 0
36.1987 0 0
36.1987 0 0
36.2957 0 0
36.2957 0 0
36.3926 0 0
36.3926 0 0
36.4895 0 0
36.4895 0 0
36.5864 0 0
36.5864 0 0
36.6833 0 0
36.6833 0 0
36.7803 0 0
36.7803 0 0
36.8772 0 0
36.8772 0 0
36.9741 0 0
36.9741 0 0
37.071 0 0
37.071 0 0
37.168 0 0
37.168 0 0
37.2649 0 0
37.2649 0 0
37.3618 0 0
37.3618 0 0
37.4587 0 0
37.4587 0 0
37.5557 0 0
37.5557 0 0
37.6526 0 0
37.6526 0 0
37.7495 0 0
37.7495 0 0
37.8464 0 0
37.8464 0 0
37.9434 0 0
37.9434 0 0
38.0403 0 0
38.0403 0 0
38.1372 0 0
38.1372 0 0
38.2341 0 0
38.2341 0 0
38.3311 0 0
38.3311 0 0
38.428 0 0
38.428 0 0
38.5249 0 0
38.5249 0 0
38.6218 0 0
38.6218 0 0
38.7188 0 0
38.7188 0 0
38.8157 0 0
38.8157 0 0
38.9126 0 0
38.9126 0 0
39.0095 0 0
39.0095 0 0
39.1064 0 0
39.1064 0 0
39.2034 0 0
39.2034 0 0
39.3003 0 0
39.3003 0 0
39.3972 0 0
39.3972 0 0
39.4941 0 0
39.4941 0 0
39.5911 0 0
39.5911 0 0
39.688 0 0
39.688 0 0
39.7849 0 0
39.7849 0 0
39.8818 0 0
39.8818 0 0
39.9788 0 0
39.9788 0 0
40.0757 0 0
40.0757 0 0
40.1726 0 0
40.1726 0 0
40.2695 0 0
40.2695 0 0
40.3665 0 0
40.3665 0 0
40.4634 0 0
40.4634 0 0
40.5603 0 0
40.5603 0 0
40.6572 0 0
40.6572 0 0
40.7542 0 0
40.7542 0 0
40.8511 0 0
40.8511 0 0
40.948 0 0
40.948 0 0
41.0449 0 0
41.0449 0 0
41.1418 0 0
41.1418 0 0
41.2388 0 0
41.2388 0 0
41.3357 0 0
41.3357 0 0
41.4326 0 0
41.4326 0 0
41.5295 0 0
41.5295 0 0
[...]
POINT_DATA 4096
SCALARS solution_0 double 1
LOOKUP_TABLE default
10.6685 10.4381 10.4381 10.2412 10.2412 10.071 10.071 9.92262 9.92262 9.79201 9.79201 9.67608 9.67608 9.57232 9.57232 9.47874 9.47874 9.39372 9.39372 9.31591 9.31591 9.24423 9.24423 9.17776 9.17776 9.11576 9.11576 9.05757 9.05757 9.00267 9.00267 8.95058 8.95058 8.90092 8.90092 8.85334 8.85334 8.80753 8.80753 8.76324 8.76324 8.72023 8.72023 8.67827 8.67827 8.63718 8.63718 8.59678 8.59678 8.55692 8.55692 8.51744 8.51744 8.47821 8.47821 8.4391 8.4391 8.40002 8.40002 8.36086 8.36086 8.32154 8.32154 8.28198 8.28198 8.24214 8.24214 8.20196 8.20196 8.16141 8.16141 8.12047 8.12047 8.07912 8.07912 8.03738 8.03738 7.99525 7.99525 7.95275 7.95275 7.90991 7.90991 7.86676 7.86676 7.82334 7.82334 7.7797 7.7797 7.73588 7.73588 7.69192 7.69192 7.64789 7.64789 7.60383 7.60383 7.55979 7.55979 7.51583 7.51583 7.47199 7.47199 7.42834 7.42834 7.38491 7.38491 7.34176 7.34176 7.29891 7.29891 7.25639 7.25639 7.21416 7.21416 7.17214 7.17214 7.13011 7.13011 7.08769 7.08769 7.04422 7.04422 6.99867 6.99867 6.94951 6.94951 6.89459 6.89459 6.83113 6.83113 6.75573 6.75573 6.66467 6.66467 6.55429 6.55429 6.42171 6.42171 6.26572 6.26572 6.08762 6.08762 5.8919 5.8919 5.68647 5.68647 5.48207 5.48207 5.29092 5.29092 5.12468 5.12468 4.99217 4.99217 4.89741 4.89741 4.8388 4.8388 4.80969 4.80969 4.80044 4.80044 4.80125 4.80125 4.80499 4.80499 4.80899 4.80899 4.81507 4.81507 4.8282 4.8282 4.85423 4.85423 4.89781 4.89781 4.96137 4.96137 5.04535 5.04535 5.14929 5.14929 5.273 5.273 5.41714 5.41714 5.58307 5.58307 5.77211 5.77211 5.98489 5.98489 6.22103 6.22103 6.47926 6.47926 6.75772 6.75772 7.05416 7.05416 7.3659 7.3659 7.68964 7.68964 8.02136 8.02136 8.35633 8.35633 8.68925 8.68925 9.01451 9.01451 9.32625 9.32625 9.61855 9.61855 9.88549 9.88549 10.1214 10.1214 10.3209 10.3209 10.4793 10.4793 10.5927 10.5927 10.6581 10.6581 10.6735 10.6735 10.638 10.638 10.5517 10.5517 10.4161 10.4161 10.2335 10.2335 10.0075 10.0075 9.74236 9.74236 9.44321 9.44321 9.11567 9.11567 8.76577 8.76577 8.3997 8.3997 8.02362 8.02362 7.64352 7.64352 7.265 7.265 6.89317 6.89317 6.53253 6.53253 6.18689 6.18689 5.85935 5.85935 5.55225 5.55225 5.26719 5.26719 5.0051 5.0051 4.76629 4.76629 4.55051 4.55051 4.35703 4.35703 4.18476 4.18476 4.03234 4.03234 3.89819 3.89819 3.78061 3.78061 3.67787 3.67787 3.58823 3.58823 3.51003 3.51003 3.44169 3.44169 3.38177 3.38177 3.32893 3.32893 3.28202 3.28202 3.24001 3.24001 3.20202 3.20202 3.1673 3.1673 3.13522 3.13522 3.10527 3.10527 3.07702 3.07702 3.05013 3.05013 3.02433 3.02433 2.99942 2.99942 2.97521 2.97521 2.95159 2.95159 2.92846 2.92846 2.90574 2.90574 2.88339 2.88339 2.86135 2.86135 2.8396 2.8396 2.81812 2.81812 2.79688 2.79688 2.77588 2.77588 2.75511 2.75511 2.73455 2.73455 2.71421 2.71421 2.69408 2.69408 2.67416 2.67416 2.65443 2.65443 2.63491 2.63491 2.61558 2.61558 2.59644 2.59644 2.57749 2.57749 2.55873 2.55873 2.54015 2.54015 2.52176 2.52176 2.50354 2.50354 2.48551 2.48551 2.46765 2.46765 2.44996 2.44996 2.43245 2.43245 2.4151 2.4151 2.39792 2.39792 2.38091 2.38091 2.36406 2.36406 2.34737 2.34737 2.33084 2.33084 2.31446 2.31446 2.29824 2.29824 2.28218 2.28218 2.26626 2.26626 2.25049 2.25049 2.23487 2.23487 2.2194 2.2194 2.20407 2.20407 2.18888 2.18888 2.17383 2.17383 2.15892 2.15892 2.14415 2.14415 2.12951 2.12951 2.11501 2.11501 2.10064 2.10064 2.08639 2.08639 2.07228 2.07228 2.05829 2.05829 2.04443 2.04443 2.0307 2.0307 2.01708 2.01708 2.00359 2.00359 1.99022 1.99022 1.97696 1.97696 1.96383 1.96383 1.9508 1.9508 1.9379 1.9379 1.9251 1.9251 1.91242 1.91242 1.89984 1.89984 1.88738 1.88738 1.87502 1.87502 1.86277 1.86277 1.85063 1.85063 1.83859 1.83859 1.82665 1.82665 1.81481 1.81481 1.80308 1.80308 1.79144 1.79144 1.7799 1.7799 1.76846 1.76846 1.75712 1.75712 1.74587 1.74587 1.73471 1.73471 1.72365 1.72365 1.71268 1.71268 1.7018 1.7018 1.69101 1.69101 1.6803 1.6803 1.66969 1.66969 1.65916 1.65916 1.64872 1.64872 1.63836 1.63836 1.62809 1.62809 1.6179 1.6179 1.6078 1.6078 1.59777 1.59777 1.58782 1.58782 1.57796 1.57796 1.56817 1.56817 1.55846 1.55846 1.54883 1.54883 1.53927 1.53927 1.52979 1.52979 1.52039 1.52039 1.51105 1.51105 1.5018 1.5018 1.49261 1.49261 1.48349 1.48349 1.47445 1.47445 1.46547 1.46547 1.45657 1.45657 1.44773 1.44773 1.43896 1.43896 1.43026 1.43026 1.42163 1.42163 1.41306 1.41306 1.40455 1.40455 1.39611 1.39611 1.38774 1.38774 1.37942 1.37942 1.37117 1.37117 1.36299 1.36299 1.35486 1.35486 1.34679 1.34679 1.33879 1.33879 1.33084 1.33084 1.32295 1.32295 1.31512 1.31512 1.30735 1.30735 1.29964 1.29964 1.29198 1.29198 1.28437 1.28437 1.27683 1.27683 1.26934 1.26934 1.2619 1.2619 1.25451 1.25451 1.24718 1.24718 1.23991 1.23991 1.23268 1.23268 1.22551 1.22551 1.21839 1.21839 1.21131 1.21131 1.20429 1.20429 1.19732 1.19732 1.1904 1.1904 1.18353 1.18353 1.1767 1.1767 1.16993 1.16993 1.1632 1.1632 1.15652 1.15652 1.14988 1.14988 1.14329 1.14329 1.13675 1.13675 1.13025 1.13025 1.1238 1.1238 1.11739 1.11739 1.11102 1.11102 1.1047 1.1047 1.09843 1.09843 1.09219 1.09219 1.086 1.086 1.07985 1.07985 1.07374 1.07374 1.06768 1.06768 1.06165 1.06165 1.05566 1.05566 1.04972 1.04972 1.04381 1.04381 1.03795 1.03795 1.03212 1.03212 1.02634 1.02634 1.02059 1.02059 1.01488 1.01488 1.0092 1.0092 1.00357 1.00357 0.997969 0.997969 0.992407 0.992407 0.986882 0.986882 0.981393 0.981393 0.97594 0.97594 0.970523 0.970523 0.965141 0.965141 0.959793 0.959793 0.95448 0.95448 0.949202 0.949202 0.943958 0.943958 0.938747 0.938747 0.93357 0.93357 0.928426 0.928426 0.923315 0.923315 0.918236 0.918236 0.91319 0.91319 0.908176 0.908176 0.903194 0.903194 0.898243 0.898243 0.893324 0.893324 0.888435 0.888435 0.883577 0.883577 0.87875 0.87875 0.873953 0.873953 0.869186 0.869186 0.864448 0.864448 0.85974 0.85974 0.855061 0.855061 0.850412 0.850412 0.845791 0.845791 0.841198 0.841198 0.836634 0.836634 0.832098 0.832098 0.827589 0.827589 0.823109 0.823109 0.818655 0.818655 0.814229 0.814229 0.80983 0.80983 0.805457 0.805457 0.801111 0.801111 0.796791 0.796791 0.792497 0.792497 0.788229 0.788229 0.783987 0.783987 0.77977 0.77977 0.775579 0.775579 0.771413 0.771413 0.767271 0.767271 0.763154 0.763154 0.759062 0.759062 0.754993 0.754993 0.750949 0.750949 0.746929 0.746929 0.742932 0.742932 0.738959 0.738959 0.73501 0.73501 0.731083 0.731083 0.72718 0.72718 0.723299 0.723299 0.719441 0.719441 0.715605 0.715605 0.711792 0.711792 0.708001 0.708001 0.704231 0.704231 0.700484 0.700484 0.696758 0.696758 0.693053 0.693053 0.68937 0.68937 0.685708 0.685708 0.682067 0.682067 0.678447 0.678447 0.674847 0.674847 0.671268 0.671268 0.667709 0.667709 0.66417 0.66417 0.660652 0.660652 0.657153 0.657153 0.653674 0.653674 0.650214 0.650214 0.646774 0.646774 0.643354 0.643354 0.639952 0.639952 0.636569 0.636569 0.633206 0.633206 0.629861 0.629861 0.626535 0.626535 0.623227 0.623227 0.619937 0.619937 0.616666 0.616666 0.613413 0.613413 0.610177 0.610177 0.60696 0.60696 0.60376 0.60376 0.600578 0.600578 0.597413 0.597413 0.594265 0.594265 0.591135 0.591135 0.588022 0.588022 0.584925 0.584925 0.581846 0.581846 0.578783 0.578783 0.575737 0.575737 0.572707 0.572707 0.569693 0.569693 0.566696 0.566696 0.563715 0.563715 0.560749 0.560749 0.5578 0.5578 0.554867 0.554867 0.551949 0.551949 0.549046 0.549046 0.54616 0.54616 0.543288 0.543288 0.540432 0.540432 0.537591 0.537591 0.534764 0.534764 0.531953 0.531953 0.529157 0.529157 0.526375 0.526375 0.523608 0.523608 0.520855 0.520855 0.518117 0.518117 0.515393 0.515393 0.512683 0.512683 0.509988 0.509988 0.507306 0.507306 0.504639 0.504639 0.501985 0.501985 0.499345 0.499345 0.496719 0.496719 0.494106 0.494106 0.491506 0.491506 0.48892 0.48892 0.486348 0.486348 0.483788 0.483788 0.481242 0.481242 0.478709 0.478709 0.476188 0.476188 0.473681 0.473681 0.471186 0.471186 0.468704 0.468704 0.466234 0.466234 0.463777 0.463777 0.461333 0.461333 0.4589 0.4589 0.45648 0.45648 0.454073 0.454073 0.451677 0.451677 0.449293 0.449293 0.446922 0.446922 0.444562 0.444562 0.442214 0.442214 0.439877 0.439877 0.437553 0.437553 0.43524 0.43524 0.432938 0.432938 0.430648 0.430648 0.428369 0.428369 0.426102 0.426102 0.423845 0.423845 0.4216 0.4216 0.419366 0.419366 0.417143 0.417143 0.414931 0.414931 0.412729 0.412729 0.410539 0.410539 0.408359 0.408359 0.406189 0.406189 0.404031 0.404031 0.401883 0.401883 0.399745 0.399745 0.397618 0.397618 0.395501 0.395501 0.393394 0.393394 0.391297 0.391297 0.389211 0.389211 0.387135 0.387135 0.385068 0.385068 0.383012 0.383012 0.380965 0.380965 0.378928 0.378928 0.376901 0.376901 0.374884 0.374884 0.372876 0.372876 0.370878 0.370878 0.36889 0.36889 0.366911 0.366911 0.364941 0.364941 0.362981 0.362981 0.36103 0.36103 0.359088 0.359088 0.357155 0.357155 0.355231 0.355231 0.353317 0.353317 0.351411 0.351411 0.349515 0.349515 0.347627 0.347627 0.345748 0.345748 0.343878 0.343878 0.342017 0.342017 0.340165 0.340165 0.338321 0.338321 0.336485 0.336485 0.334658 0.334658 0.33284 0.33284 0.33103 0.33103 0.329229 0.329229 0.327435 0.327435 0.325651 0.325651 0.323874 0.323874 0.322105 0.322105 0.320345 0.320345 0.318593 0.318593 0.316848 0.316848 0.315112 0.315112 0.313384 0.313384 0.311664 0.311664 0.309951 0.309951 0.308246 0.308246 0.306549 0.306549 0.30486 0.30486 0.303179 0.303179 0.301505 0.301505 0.299838 0.299838 0.29818 0.29818 0.296528 0.296528 0.294884 0.294884 0.293248 0.293248 0.291619 0.291619 0.289997 0.289997 0.288383 0.288383 0.286775 0.286775 0.285175 0.285175 0.283583 0.283583 0.281997 0.281997 0.280418 0.280418 0.278847 0.278847 0.277282 0.277282 0.275724 0.275724 0.274174 0.274174 0.27263 0.27263 0.271093 0.271093 0.269563 0.269563 0.268039 0.268039 0.266523 0.266523 0.265013 0.265013 0.263509 0.263509 0.262012 0.262012 0.260522 0.260522 0.259039 0.259039 0.257562 0.257562 0.256091 0.256091 0.254627 0.254627 0.253169 0.253169 0.251718 0.251718 0.250272 0.250272 0.248834 0.248834 0.247401 0.247401 0.245975 0.245975 0.244555 0.244555 0.243141 0.243141 0.241733 0.241733 0.240331 0.240331 0.238935 0.238935 0.237546 0.237546 0.236162 0.236162 0.234784 0.234784 0.233412 0.233412 0.232046 0.232046 0.230686 0.230686 0.229332 0.229332 0.227984 0.227984 0.226641 0.226641 0.225304 0.225304 0.223973 0.223973 0.222647 0.222647 0.221327 0.221327 0.220013 0.220013 0.218704 0.218704 0.217401 0.217401 0.216104 0.216104 0.214812 0.214812 0.213525 0.213525 0.212244 0.212244 0.210968 0.210968 0.209697 0.209697 0.208432 0.208432 0.207172 0.207172 0.205918 0.205918 0.204669 0.204669 0.203425 0.203425 0.202186 0.202186 0.200952 0.200952 0.199724 0.199724 0.198501 0.198501 0.197283 0.197283 0.196069 0.196069 0.194861 0.194861 0.193658 0.193658 0.19246 0.19246 0.191267 0.191267 0.190079 0.190079 0.188896 0.188896 0.187718 0.187718 0.186544 0.186544 0.185375 0.185375 0.184212 0.184212 0.183053 0.183053 0.181898 0.181898 0.180749 0.180749 0.179604 0.179604 0.178464 0.178464 0.177329 0.177329 0.176198 0.176198 0.175072 0.175072 0.17395 0.17395 0.172833 0.172833 0.171721 0.171721 0.170613 0.170613 0.16951 0.16951 0.168411 0.168411 0.167317 0.167317 0.166227 0.166227 0.165141 0.165141 0.16406 0.16406 0.162983 0.162983 0.161911 0.161911 0.160843 0.160843 0.159779 0.159779 0.158719 0.158719 0.157664 0.157664 0.156613 0.156613 0.155566 0.155566 0.154524 0.154524 0.153485 0.153485 0.152451 0.152451 0.151421 0.151421 0.150395 0.150395 0.149373 0.149373 0.148355 0.148355 0.147342 0.147342 0.146332 0.146332 0.145326 0.145326 0.144325 0.144325 0.143327 0.143327 0.142333 0.142333 0.141343 0.141343 0.140357 0.140357 0.139375 0.139375 0.138397 0.138397 0.137423 0.137423 0.136453 0.136453 0.135486 0.135486 0.134523 0.134523 0.133564 0.133564 0.132609 0.132609 0.131658 0.131658 0.13071 0.13071 0.129766 0.129766 0.128825 0.128825 0.127889 0.127889 0.126956 0.126956 0.126026 0.126026 0.125101 0.125101 0.124179 0.124179 0.12326 0.12326 0.122345 0.122345 0.121434 0.121434 0.120526 0.120526 0.119622 0.119622 0.118721 0.118721 0.117824 0.117824 0.11693 0.11693 0.116039 0.116039 0.115152 0.115152 0.114269 0.114269 0.113389 0.113389 0.112512 0.112512 0.111639 0.111639 0.110769 0.110769 0.109902 0.109902 0.109039 0.109039 0.108179 0.108179 0.107322 0.107322 0.106469 0.106469 0.105618 0.105618 0.104771 0.104771 0.103928 0.103928 0.103087 0.103087 0.10225 0.10225 0.101416 0.101416 0.100585 0.100585 0.0997574 0.0997574 0.0989328 0.0989328 0.0981113 0.0981113 0.097293 0.097293 0.0964778 0.0964778 0.0956656 0.0956656 0.0948566 0.0948566 0.0940506 0.0940506 0.0932476 0.0932476 0.0924477 0.0924477 0.0916508 0.0916508 0.0908569 0.0908569 0.0900659 0.0900659 0.089278 0.089278 0.088493 0.088493 0.087711 0.087711 0.0869319 0.0869319 0.0861557 0.0861557 0.0853825 0.0853825 0.0846121 0.0846121 0.0838446 0.0838446 0.08308 0.08308 0.0823182 0.0823182 0.0815593 0.0815593 0.0808032 0.0808032 0.0800499 0.0800499 0.0792995 0.0792995 0.0785518 0.0785518 0.0778069 0.0778069 0.0770648 0.0770648 0.0763254 0.0763254 0.0755888 0.0755888 0.0748549 0.0748549 0.0741237 0.0741237 0.0733952 0.0733952 0.0726695 0.0726695 0.0719464 0.0719464 0.0712259 0.0712259 0.0705082 0.0705082 0.069793 0.069793 0.0690805 0.0690805 0.0683707 0.0683707 0.0676634 0.0676634 0.0669587 0.0669587 0.0662567 0.0662567 0.0655572 0.0655572 0.0648602 0.0648602 0.0641658 0.0641658 0.063474 0.063474 0.0627847 0.0627847 0.0620979 0.0620979 0.0614136 0.0614136 0.0607318 0.0607318 0.0600525 0.0600525 0.0593757 0.0593757 0.0587014 0.0587014 0.0580295 0.0580295 0.05736 0.05736 0.056693 0.056693 0.0560284 0.0560284 0.0553662 0.0553662 0.0547064 0.0547064 0.054049 0.054049 0.0533939 0.0533939 0.0527413 0.0527413 0.052091 0.052091 0.051443 0.051443 0.0507974 0.0507974 0.0501541 0.0501541 0.0495132 0.0495132 0.0488745 0.0488745 0.0482382 0.0482382 0.0476041 0.0476041 0.0469723 0.0469723 0.0463428 0.0463428 0.0457156 0.0457156 0.0450906 0.0450906 0.0444678 0.0444678 0.0438472 0.0438472 0.0432289 0.0432289 0.0426128 0.0426128 0.0419989 0.0419989 0.0413872 0.0413872 0.0407777 0.0407777 0.0401703 0.0401703 0.0395651 0.0395651 0.0389621 0.0389621 0.0383612 0.0383612 0.0377625 0.0377625 0.0371659 0.0371659 0.0365713 0.0365713 0.035979 0.035979 0.0353887 0.0353887 0.0348005 0.0348005 0.0342144 0.0342144 0.0336303 0.0336303 0.0330483 0.0330483 0.0324684 0.0324684 0.0318906 0.0318906 0.0313147 0.0313147 0.0307409 0.0307409 0.0301692 0.0301692 0.0295994 0.0295994 0.0290316 0.0290316 0.0284659 0.0284659 0.0279021 0.0279021 0.0273403 0.0273403 0.0267805 0.0267805 0.0262227 0.0262227 0.0256668 0.0256668 0.0251129 0.0251129 0.0245609 0.0245609 0.0240108 0.0240108 0.0234626 0.0234626 0.0229164 0.0229164 0.0223721 0.0223721 0.0218297 0.0218297 0.0212891 0.0212891 0.0207505 0.0207505 0.0202137 0.0202137 0.0196788 0.0196788 0.0191458 0.0191458 0.0186146 0.0186146 0.0180853 0.0180853 0.0175578 0.0175578 0.0170321 0.0170321 0.0165083 0.0165083 0.0159863 0.0159863 0.0154661 0.0154661 0.0149476 0.0149476 0.014431 0.014431 0.0139162 0.0139162 0.0134031 0.0134031 0.0128919 0.0128919 0.0123824 0.0123824 0.0118746 0.0118746 0.0113686 0.0113686 0.0108643 0.0108643 0.0103618 0.0103618 0.00986102 0.00986102 0.00936195 0.00936195 0.00886459 0.00886459 0.00836895 0.00836895 0.007875 0.007875 0.00738276 0.00738276 0.0068922 0.0068922 0.00640332 0.00640332 0.00591611 0.00591611 0.00543058 0.00543058 0.0049467 0.0049467 0.00446449 0.00446449 0.00398391 0.00398391 0.00350499 0.00350499 0.00302769 0.00302769 0.00255203 0.00255203 0.00207798 0.00207798 0.00160556 0.00160556 0.00113474 0.00113474 0.000665522 0.000665522 0.000197903 0.000197903 -0.000268126 -0.000268126 -0.000732571 -0.000732571 -0.00119544 -0.00119544 -0.00165673 -0.00165673 -0.00211647 -0.00211647 -0.00257464 -0.00257464 -0.00303126 -0.00303126 -0.00348633 -0.00348633 -0.00393986 -0.00393986 -0.00439186 -0.00439186 -0.00484233 -0.00484233 -0.00529127 -0.00529127 -0.0057387 -0.0057387 -0.00618462 -0.00618462 -0.00662904 -0.00662904 -0.00707196 -0.00707196 -0.00751338 -0.00751338 -0.00795331 -0.00795331 -0.00839177 -0.00839177 -0.00882875 -0.00882875 -0.00926426 -0.00926426 -0.0096983 -0.0096983 -0.0101309 -0.0101309 -0.010562 -0.010562 -0.0109917 -0.0109917 -0.01142 -0.01142 -0.0118468 -0.0118468 -0.0122722 -0.0122722 -0.0126961 -0.0126961 -0.0131186 -0.0131186 -0.0135398 -0.0135398 -0.0139595 -0.0139595 -0.0143778 -0.0143778 -0.0147947 -0.0147947 -0.0152102 -0.0152102 -0.0156244 -0.0156244 -0.0160371 -0.0160371 -0.0164485 -0.0164485 -0.0168585 -0.0168585 -0.0172671 -0.0172671 -0.0176744 -0.0176744 -0.0180804 -0.0180804 -0.0184849 -0.0184849 -0.0188882 -0.0188882 -0.0192901 -0.0192901 -0.0196906 -0.0196906 -0.0200898 -0.0200898 -0.0204877 -0.0204877 -0.0208843 -0.0208843 -0.0212796 -0.0212796 -0.0216736 -0.0216736 -0.0220662 -0.0220662 -0.0224576 -0.0224576 -0.0228476 -0.0228476 -0.0232364 -0.0232364 -0.0236239 -0.0236239 -0.0240101 -0.0240101 -0.0243951 -0.0243951 -0.0247787 -0.0247787 -0.0251611 -0.0251611 -0.0255423 -0.0255423 -0.0259221 -0.0259221 -0.0263008 -0.0263008 -0.0266782 -0.0266782 -0.0270543 -0.0270543 -0.0274292 -0.0274292 -0.0278029 -0.0278029 -0.0281753 -0.0281753 -0.0285465 -0.0285465 -0.0289166 -0.0289166 -0.0292853 -0.0292853 -0.0296529 -0.0296529 -0.0300193 -0.0300193 -0.0303845 -0.0303845 -0.0307485 -0.0307485 -0.0311112 -0.0311112 -0.0314728 -0.0314728 -0.0318333 -0.0318333 -0.0321925 -0.0321925 -0.0325506 -0.0325506 -0.0329075 -0.0329075 -0.0332632 -0.0332632 -0.0336178 -0.0336178 -0.0339712 -0.0339712 -0.0343234 -0.0343234 -0.0346745 -0.0346745 -0.0350245 -0.0350245 -0.0353733 -0.0353733 -0.035721 -0.035721 -0.0360676 -0.0360676 -0.036413 -0.036413 -0.0367573 -0.0367573 -0.0371005 -0.0371005 -0.0374426 -0.0374426 -0.0377836 -0.0377836 -0.0381234 -0.0381234 -0.0384622 -0.0384622 -0.0387998 -0.0387998 -0.0391364 -0.0391364 -0.0394719 -0.0394719 -0.0398063 -0.0398063 -0.0401396 -0.0401396 -0.0404718 -0.0404718 -0.0408029 -0.0408029 -0.041133 -0.041133 -0.041462 -0.041462 -0.04179 -0.04179 -0.0421169 -0.0421169 -0.0424427 -0.0424427 -0.0427675 -0.0427675 -0.0430912 -0.0430912 -0.0434139 -0.0434139 -0.0437356 -0.0437356 -0.0440562 -0.0440562 -0.0443758 -0.0443758 -0.0446943 -0.0446943 -0.0450119 -0.0450119 -0.0453284 -0.0453284 -0.0456439 -0.0456439 -0.0459583 -0.0459583 -0.0462718 -0.0462718 -0.0465843 -0.0465843 -0.0468957 -0.0468957 -0.0472062 -0.0472062 -0.0475156 -0.0475156 -0.0478241 -0.0478241 -0.0481316 -0.0481316 -0.0484381 -0.0484381 -0.0487436 -0.0487436 -0.0490481 -0.0490481 -0.0493517 -0.0493517 -0.0496542 -0.0496542 -0.0499559 -0.0499559 -0.0502565 -0.0502565 -0.0505562 -0.0505562 -0.0508549 -0.0508549 -0.0511527 -0.0511527 -0.0514495 -0.0514495 -0.0517454 -0.0517454 -0.0520404 -0.0520404 -0.0523344 -0.0523344 -0.0526274 -0.0526274 -0.0529195 -0.0529195 -0.0532107 -0.0532107 -0.053501 -0.053501 -0.0537903 -0.0537903 -0.0540788 -0.0540788 -0.0543663 -0.0543663 -0.0546528 -0.0546528 -0.0549385 -0.0549385 -0.0552233 -0.0552233 -0.0555071 -0.0555071 -0.0557901 -0.0557901 -0.0560722 -0.0560722 -0.0563533 -0.0563533 -0.0566336 -0.0566336 -0.056913 -0.056913 -0.0571915 -0.0571915 -0.0574691 -0.0574691 -0.0577458 -0.0577458 -0.0580217 -0.0580217 -0.0582967 -0.0582967 -0.0585708 -0.0585708 -0.0588441 -0.0588441 -0.0591164 -0.0591164 -0.059388 -0.059388 -0.0596586 -0.0596586 -0.0599284 -0.0599284 -0.0601974 -0.0601974 -0.0604655 -0.0604655 -0.0607327 -0.0607327 -0.0609991 -0.0609991 -0.0612647 -0.0612647 -0.0615294 -0.0615294 -0.0617933 -0.0617933 -0.0620564 -0.0620564 -0.0623186 -0.0623186 -0.06258 -0.06258 -0.0628406 -0.0628406 -0.0631004 -0.0631004 -0.0633593 -0.0633593 -0.0636175 -0.0636175 -0.0638748 -0.0638748 -0.0641313 -0.0641313 -0.064387 -0.064387 -0.0646419 -0.0646419 -0.064896 -0.064896 -0.0651493 -0.0651493 -0.0654018 -0.0654018 -0.0656535 -0.0656535 -0.0659044 -0.0659044 -0.0661546 -0.0661546 -0.0664039 -0.0664039 -0.0666525 -0.0666525 -0.0669002 -0.0669002 -0.0671472 -0.0671472 -0.0673935 -0.0673935 -0.0676389 -0.0676389 -0.0678836 -0.0678836 -0.0681276 -0.0681276 -0.0683707 -0.0683707 -0.0686131 -0.0686131 -0.0688547 -0.0688547 -0.0690956 -0.0690956 -0.0693358 -0.0693358 -0.0695751 -0.0695751 -0.0698