# vtk DataFile Version 3.0
#This file was generated by the deal.II library on 2020/9/6 at 2:49:29
ASCII
DATASET UNSTRUCTURED_GRID

POINTS 4096 double
1.5 0 0
1.59692 0 0
1.59692 0 0
1.69385 0 0
1.69385 0 0
1.79077 0 0
1.79077 0 0
1.8877 0 0
1.8877 0 0
1.98462 0 0
1.98462 0 0
2.08154 0 0
2.08154 0 0
2.17847 0 0
2.17847 0 0
2.27539 0 0
2.27539 0 0
2.37231 0 0
2.37231 0 0
2.46924 0 0
2.46924 0 0
2.56616 0 0
2.56616 0 0
2.66309 0 0
2.66309 0 0
2.76001 0 0
2.76001 0 0
2.85693 0 0
2.85693 0 0
2.95386 0 0
2.95386 0 0
3.05078 0 0
3.05078 0 0
3.14771 0 0
3.14771 0 0
3.24463 0 0
3.24463 0 0
3.34155 0 0
3.34155 0 0
3.43848 0 0
3.43848 0 0
3.5354 0 0
3.5354 0 0
3.63232 0 0
3.63232 0 0
3.72925 0 0
3.72925 0 0
3.82617 0 0
3.82617 0 0
3.9231 0 0
3.9231 0 0
4.02002 0 0
4.02002 0 0
4.11694 0 0
4.11694 0 0
4.21387 0 0
4.21387 0 0
4.31079 0 0
4.31079 0 0
4.40771 0 0
4.40771 0 0
4.50464 0 0
4.50464 0 0
4.60156 0 0
4.60156 0 0
4.69849 0 0
4.69849 0 0
4.79541 0 0
4.79541 0 0
4.89233 0 0
4.89233 0 0
4.98926 0 0
4.98926 0 0
5.08618 0 0
5.08618 0 0
5.18311 0 0
5.18311 0 0
5.28003 0 0
5.28003 0 0
5.37695 0 0
5.37695 0 0
5.47388 0 0
5.47388 0 0
5.5708 0 0
5.5708 0 0
5.66772 0 0
5.66772 0 0
5.76465 0 0
5.76465 0 0
5.86157 0 0
5.86157 0 0
5.9585 0 0
5.9585 0 0
6.05542 0 0
6.05542 0 0
6.15234 0 0
6.15234 0 0
6.24927 0 0
6.24927 0 0
6.34619 0 0
6.34619 0 0
6.44312 0 0
6.44312 0 0
6.54004 0 0
6.54004 0 0
6.63696 0 0
6.63696 0 0
6.73389 0 0
6.73389 0 0
6.83081 0 0
6.83081 0 0
6.92773 0 0
6.92773 0 0
7.02466 0 0
7.02466 0 0
7.12158 0 0
7.12158 0 0
7.21851 0 0
7.21851 0 0
7.31543 0 0
7.31543 0 0
7.41235 0 0
7.41235 0 0
7.50928 0 0
7.50928 0 0
7.6062 0 0
7.6062 0 0
7.70312 0 0
7.70312 0 0
7.80005 0 0
7.80005 0 0
7.89697 0 0
7.89697 0 0
7.9939 0 0
7.9939 0 0
8.09082 0 0
8.09082 0 0
8.18774 0 0
8.18774 0 0
8.28467 0 0
8.28467 0 0
8.38159 0 0
8.38159 0 0
8.47852 0 0
8.47852 0 0
8.57544 0 0
8.57544 0 0
8.67236 0 0
8.67236 0 0
8.76929 0 0
8.76929 0 0
8.86621 0 0
8.86621 0 0
8.96313 0 0
8.96313 0 0
9.06006 0 0
9.06006 0 0
9.15698 0 0
9.15698 0 0
9.25391 0 0
9.25391 0 0
9.35083 0 0
9.35083 0 0
9.44775 0 0
9.44775 0 0
9.54468 0 0
9.54468 0 0
9.6416 0 0
9.6416 0 0
9.73853 0 0
9.73853 0 0
9.83545 0 0
9.83545 0 0
9.93237 0 0
9.93237 0 0
10.0293 0 0
10.0293 0 0
10.1262 0 0
10.1262 0 0
10.2231 0 0
10.2231 0 0
10.3201 0 0
10.3201 0 0
10.417 0 0
10.417 0 0
10.5139 0 0
10.5139 0 0
10.6108 0 0
10.6108 0 0
10.7078 0 0
10.7078 0 0
10.8047 0 0
10.8047 0 0
10.9016 0 0
10.9016 0 0
10.9985 0 0
10.9985 0 0
11.0955 0 0
11.0955 0 0
11.1924 0 0
11.1924 0 0
11.2893 0 0
11.2893 0 0
11.3862 0 0
11.3862 0 0
11.4832 0 0
11.4832 0 0
11.5801 0 0
11.5801 0 0
11.677 0 0
11.677 0 0
11.7739 0 0
11.7739 0 0
11.8708 0 0
11.8708 0 0
11.9678 0 0
11.9678 0 0
12.0647 0 0
12.0647 0 0
12.1616 0 0
12.1616 0 0
12.2585 0 0
12.2585 0 0
12.3555 0 0
12.3555 0 0
12.4524 0 0
12.4524 0 0
12.5493 0 0
12.5493 0 0
12.6462 0 0
12.6462 0 0
12.7432 0 0
12.7432 0 0
12.8401 0 0
12.8401 0 0
12.937 0 0
12.937 0 0
13.0339 0 0
13.0339 0 0
13.1309 0 0
13.1309 0 0
13.2278 0 0
13.2278 0 0
13.3247 0 0
13.3247 0 0
13.4216 0 0
13.4216 0 0
13.5186 0 0
13.5186 0 0
13.6155 0 0
13.6155 0 0
13.7124 0 0
13.7124 0 0
13.8093 0 0
13.8093 0 0
13.9062 0 0
13.9062 0 0
14.0032 0 0
14.0032 0 0
14.1001 0 0
14.1001 0 0
14.197 0 0
14.197 0 0
14.2939 0 0
14.2939 0 0
14.3909 0 0
14.3909 0 0
14.4878 0 0
14.4878 0 0
14.5847 0 0
14.5847 0 0
14.6816 0 0
14.6816 0 0
14.7786 0 0
14.7786 0 0
14.8755 0 0
14.8755 0 0
14.9724 0 0
14.9724 0 0
15.0693 0 0
15.0693 0 0
15.1663 0 0
15.1663 0 0
15.2632 0 0
15.2632 0 0
15.3601 0 0
15.3601 0 0
15.457 0 0
15.457 0 0
15.554 0 0
15.554 0 0
15.6509 0 0
15.6509 0 0
15.7478 0 0
15.7478 0 0
15.8447 0 0
15.8447 0 0
15.9417 0 0
15.9417 0 0
16.0386 0 0
16.0386 0 0
16.1355 0 0
16.1355 0 0
16.2324 0 0
16.2324 0 0
16.3293 0 0
16.3293 0 0
16.4263 0 0
16.4263 0 0
16.5232 0 0
16.5232 0 0
16.6201 0 0
16.6201 0 0
16.717 0 0
16.717 0 0
16.814 0 0
16.814 0 0
16.9109 0 0
16.9109 0 0
17.0078 0 0
17.0078 0 0
17.1047 0 0
17.1047 0 0
17.2017 0 0
17.2017 0 0
17.2986 0 0
17.2986 0 0
17.3955 0 0
17.3955 0 0
17.4924 0 0
17.4924 0 0
17.5894 0 0
17.5894 0 0
17.6863 0 0
17.6863 0 0
17.7832 0 0
17.7832 0 0
17.8801 0 0
17.8801 0 0
17.9771 0 0
17.9771 0 0
18.074 0 0
18.074 0 0
18.1709 0 0
18.1709 0 0
18.2678 0 0
18.2678 0 0
18.3647 0 0
18.3647 0 0
18.4617 0 0
18.4617 0 0
18.5586 0 0
18.5586 0 0
18.6555 0 0
18.6555 0 0
18.7524 0 0
18.7524 0 0
18.8494 0 0
18.8494 0 0
18.9463 0 0
18.9463 0 0
19.0432 0 0
19.0432 0 0
19.1401 0 0
19.1401 0 0
19.2371 0 0
19.2371 0 0
19.334 0 0
19.334 0 0
19.4309 0 0
19.4309 0 0
19.5278 0 0
19.5278 0 0
19.6248 0 0
19.6248 0 0
19.7217 0 0
19.7217 0 0
19.8186 0 0
19.8186 0 0
19.9155 0 0
19.9155 0 0
20.0125 0 0
20.0125 0 0
20.1094 0 0
20.1094 0 0
20.2063 0 0
20.2063 0 0
20.3032 0 0
20.3032 0 0
20.4001 0 0
20.4001 0 0
20.4971 0 0
20.4971 0 0
20.594 0 0
20.594 0 0
20.6909 0 0
20.6909 0 0
20.7878 0 0
20.7878 0 0
20.8848 0 0
20.8848 0 0
20.9817 0 0
20.9817 0 0
21.0786 0 0
21.0786 0 0
21.1755 0 0
21.1755 0 0
21.2725 0 0
21.2725 0 0
21.3694 0 0
21.3694 0 0
21.4663 0 0
21.4663 0 0
21.5632 0 0
21.5632 0 0
21.6602 0 0
21.6602 0 0
21.7571 0 0
21.7571 0 0
21.854 0 0
21.854 0 0
21.9509 0 0
21.9509 0 0
22.0479 0 0
22.0479 0 0
22.1448 0 0
22.1448 0 0
22.2417 0 0
22.2417 0 0
22.3386 0 0
22.3386 0 0
22.4355 0 0
22.4355 0 0
22.5325 0 0
22.5325 0 0
22.6294 0 0
22.6294 0 0
22.7263 0 0
22.7263 0 0
22.8232 0 0
22.8232 0 0
22.9202 0 0
22.9202 0 0
23.0171 0 0
23.0171 0 0
23.114 0 0
23.114 0 0
23.2109 0 0
23.2109 0 0
23.3079 0 0
23.3079 0 0
23.4048 0 0
23.4048 0 0
23.5017 0 0
23.5017 0 0
23.5986 0 0
23.5986 0 0
23.6956 0 0
23.6956 0 0
23.7925 0 0
23.7925 0 0
23.8894 0 0
23.8894 0 0
23.9863 0 0
23.9863 0 0
24.0833 0 0
24.0833 0 0
24.1802 0 0
24.1802 0 0
24.2771 0 0
24.2771 0 0
24.374 0 0
24.374 0 0
24.4709 0 0
24.4709 0 0
24.5679 0 0
24.5679 0 0
24.6648 0 0
24.6648 0 0
24.7617 0 0
24.7617 0 0
24.8586 0 0
24.8586 0 0
24.9556 0 0
24.9556 0 0
25.0525 0 0
25.0525 0 0
25.1494 0 0
25.1494 0 0
25.2463 0 0
25.2463 0 0
25.3433 0 0
25.3433 0 0
25.4402 0 0
25.4402 0 0
25.5371 0 0
25.5371 0 0
25.634 0 0
25.634 0 0
25.731 0 0
25.731 0 0
25.8279 0 0
25.8279 0 0
25.9248 0 0
25.9248 0 0
26.0217 0 0
26.0217 0 0
26.1187 0 0
26.1187 0 0
26.2156 0 0
26.2156 0 0
26.3125 0 0
26.3125 0 0
26.4094 0 0
26.4094 0 0
26.5063 0 0
26.5063 0 0
26.6033 0 0
26.6033 0 0
26.7002 0 0
26.7002 0 0
26.7971 0 0
26.7971 0 0
26.894 0 0
26.894 0 0
26.991 0 0
26.991 0 0
27.0879 0 0
27.0879 0 0
27.1848 0 0
27.1848 0 0
27.2817 0 0
27.2817 0 0
27.3787 0 0
27.3787 0 0
27.4756 0 0
27.4756 0 0
27.5725 0 0
27.5725 0 0
27.6694 0 0
27.6694 0 0
27.7664 0 0
27.7664 0 0
27.8633 0 0
27.8633 0 0
27.9602 0 0
27.9602 0 0
28.0571 0 0
28.0571 0 0
28.1541 0 0
28.1541 0 0
28.251 0 0
28.251 0 0
28.3479 0 0
28.3479 0 0
28.4448 0 0
28.4448 0 0
28.5417 0 0
28.5417 0 0
28.6387 0 0
28.6387 0 0
28.7356 0 0
28.7356 0 0
28.8325 0 0
28.8325 0 0
28.9294 0 0
28.9294 0 0
29.0264 0 0
29.0264 0 0
29.1233 0 0
29.1233 0 0
29.2202 0 0
29.2202 0 0
29.3171 0 0
29.3171 0 0
29.4141 0 0
29.4141 0 0
29.511 0 0
29.511 0 0
29.6079 0 0
29.6079 0 0
29.7048 0 0
29.7048 0 0
29.8018 0 0
29.8018 0 0
29.8987 0 0
29.8987 0 0
29.9956 0 0
29.9956 0 0
30.0925 0 0
30.0925 0 0
30.1895 0 0
30.1895 0 0
30.2864 0 0
30.2864 0 0
30.3833 0 0
30.3833 0 0
30.4802 0 0
30.4802 0 0
30.5771 0 0
30.5771 0 0
30.6741 0 0
30.6741 0 0
30.771 0 0
30.771 0 0
30.8679 0 0
30.8679 0 0
30.9648 0 0
30.9648 0 0
31.0618 0 0
31.0618 0 0
31.1587 0 0
31.1587 0 0
31.2556 0 0
31.2556 0 0
31.3525 0 0
31.3525 0 0
31.4495 0 0
31.4495 0 0
31.5464 0 0
31.5464 0 0
31.6433 0 0
31.6433 0 0
31.7402 0 0
31.7402 0 0
31.8372 0 0
31.8372 0 0
31.9341 0 0
31.9341 0 0
32.031 0 0
32.031 0 0
32.1279 0 0
32.1279 0 0
32.2249 0 0
32.2249 0 0
32.3218 0 0
32.3218 0 0
32.4187 0 0
32.4187 0 0
32.5156 0 0
32.5156 0 0
32.6125 0 0
32.6125 0 0
32.7095 0 0
32.7095 0 0
32.8064 0 0
32.8064 0 0
32.9033 0 0
32.9033 0 0
33.0002 0 0
33.0002 0 0
33.0972 0 0
33.0972 0 0
33.1941 0 0
33.1941 0 0
33.291 0 0
33.291 0 0
33.3879 0 0
33.3879 0 0
33.4849 0 0
33.4849 0 0
33.5818 0 0
33.5818 0 0
33.6787 0 0
33.6787 0 0
33.7756 0 0
33.7756 0 0
33.8726 0 0
33.8726 0 0
33.9695 0 0
33.9695 0 0
34.0664 0 0
34.0664 0 0
34.1633 0 0
34.1633 0 0
34.2603 0 0
34.2603 0 0
34.3572 0 0
34.3572 0 0
34.4541 0 0
34.4541 0 0
34.551 0 0
34.551 0 0
34.6479 0 0
34.6479 0 0
34.7449 0 0
34.7449 0 0
34.8418 0 0
34.8418 0 0
34.9387 0 0
34.9387 0 0
35.0356 0 0
35.0356 0 0
35.1326 0 0
35.1326 0 0
35.2295 0 0
35.2295 0 0
35.3264 0 0
35.3264 0 0
35.4233 0 0
35.4233 0 0
35.5203 0 0
35.5203 0 0
35.6172 0 0
35.6172 0 0
35.7141 0 0
35.7141 0 0
35.811 0 0
35.811 0 0
35.908 0 0
35.908 0 0
36.0049 0 0
36.0049 0 0
36.1018 0 0
36.1018 0 0
36.1987 0 0
36.1987 0 0
36.2957 0 0
36.2957 0 0
36.3926 0 0
36.3926 0 0
36.4895 0 0
36.4895 0 0
36.5864 0 0
36.5864 0 0
36.6833 0 0
36.6833 0 0
36.7803 0 0
36.7803 0 0
36.8772 0 0
36.8772 0 0
36.9741 0 0
36.9741 0 0
37.071 0 0
37.071 0 0
37.168 0 0
37.168 0 0
37.2649 0 0
37.2649 0 0
37.3618 0 0
37.3618 0 0
37.4587 0 0
37.4587 0 0
37.5557 0 0
37.5557 0 0
37.6526 0 0
37.6526 0 0
37.7495 0 0
37.7495 0 0
37.8464 0 0
37.8464 0 0
37.9434 0 0
37.9434 0 0
38.0403 0 0
38.0403 0 0
38.1372 0 0
38.1372 0 0
38.2341 0 0
38.2341 0 0
38.3311 0 0
38.3311 0 0
38.428 0 0
38.428 0 0
38.5249 0 0
38.5249 0 0
38.6218 0 0
38.6218 0 0
38.7188 0 0
38.7188 0 0
38.8157 0 0
38.8157 0 0
38.9126 0 0
38.9126 0 0
39.0095 0 0
39.0095 0 0
39.1064 0 0
39.1064 0 0
39.2034 0 0
39.2034 0 0
39.3003 0 0
39.3003 0 0
39.3972 0 0
39.3972 0 0
39.4941 0 0
39.4941 0 0
39.5911 0 0
39.5911 0 0
39.688 0 0
39.688 0 0
39.7849 0 0
39.7849 0 0
39.8818 0 0
39.8818 0 0
39.9788 0 0
39.9788 0 0
40.0757 0 0
40.0757 0 0
40.1726 0 0
40.1726 0 0
40.2695 0 0
40.2695 0 0
40.3665 0 0
40.3665 0 0
40.4634 0 0
40.4634 0 0
40.5603 0 0
40.5603 0 0
40.6572 0 0
40.6572 0 0
40.7542 0 0
40.7542 0 0
40.8511 0 0
40.8511 0 0
40.948 0 0
40.948 0 0
41.0449 0 0
41.0449 0 0
41.1418 0 0
41.1418 0 0
41.2388 0 0
41.2388 0 0
41.3357 0 0
41.3357 0 0
41.4326 0 0
41.4326 0 0
41.5295 0 0
41.5295 0 0
[...]
POINT_DATA 4096
SCALARS solution_0 double 1
LOOKUP_TABLE default
182.449 178.652 178.652 175.446 175.446 172.711 172.711 170.354 170.354 168.306 168.306 166.511 166.511 164.923 164.923 163.508 163.508 162.236 162.236 161.084 161.084 160.033 160.033 159.067 159.067 158.172 158.172 157.338 157.338 156.554 156.554 155.814 155.814 155.111 155.111 154.438 154.438 153.792 153.792 153.167 153.167 152.561 152.561 151.971 151.971 151.393 151.393 150.826 150.826 150.268 150.268 149.717 149.717 149.171 149.171 148.63 148.63 148.092 148.092 147.556 147.556 147.022 147.022 146.489 146.489 145.957 145.957 145.424 145.424 144.891 144.891 144.356 144.356 143.821 143.821 143.284 143.284 142.745 142.745 142.205 142.205 141.663 141.663 141.118 141.118 140.572 140.572 140.023 140.023 139.473 139.473 138.92 138.92 138.364 138.364 137.807 137.807 137.248 137.248 136.686 136.686 136.123 136.123 135.557 135.557 134.99 134.99 134.42 134.42 133.849 133.849 133.276 133.276 132.702 132.702 132.126 132.126 131.548 131.548 130.969 130.969 130.389 130.389 129.808 129.808 129.225 129.225 128.642 128.642 128.057 128.057 127.472 127.472 126.886 126.886 126.3 126.3 125.712 125.712 125.125 125.125 124.536 124.536 123.948 123.948 123.359 123.359 122.77 122.77 122.182 122.182 121.593 121.593 121.004 121.004 120.415 120.415 119.827 119.827 119.239 119.239 118.651 118.651 118.064 118.064 117.477 117.477 116.891 116.891 116.305 116.305 115.72 115.72 115.136 115.136 114.553 114.553 113.971 113.971 113.39 113.39 112.809 112.809 112.23 112.23 111.652 111.652 111.075 111.075 110.499 110.499 109.925 109.925 109.352 109.352 108.78 108.78 108.21 108.21 107.641 107.641 107.073 107.073 106.507 106.507 105.943 105.943 105.38 105.38 104.819 104.819 104.26 104.26 103.702 103.702 103.146 103.146 102.592 102.592 102.04 102.04 101.489 101.489 100.94 100.94 100.394 100.394 99.8487 99.8487 99.3057 99.3057 98.7648 98.7648 98.2258 98.2258 97.6888 97.6888 97.1539 97.1539 96.621 96.621 96.0902 96.0902 95.5615 95.5615 95.0348 95.0348 94.5104 94.5104 93.988 93.988 93.4678 93.4678 92.9498 92.9498 92.4339 92.4339 91.9203 91.9203 91.4088 91.4088 90.8996 90.8996 90.3926 90.3926 89.8879 89.8879 89.3854 89.3854 88.8851 88.8851 88.3872 88.3872 87.8915 87.8915 87.3981 87.3981 86.9069 86.9069 86.4181 86.4181 85.9316 85.9316 85.4474 85.4474 84.9655 84.9655 84.4859 84.4859 84.0086 84.0086 83.5337 83.5337 83.0611 83.0611 82.5908 82.5908 82.1228 82.1228 81.6572 81.6572 81.1938 81.1938 80.7329 80.7329 80.2742 80.2742 79.8179 79.8179 79.3639 79.3639 78.9123 78.9123 78.463 78.463 78.016 78.016 77.5713 77.5713 77.129 77.129 76.6889 76.6889 76.2512 76.2512 75.8158 75.8158 75.3827 75.3827 74.952 74.952 74.5235 74.5235 74.0973 74.0973 73.6734 73.6734 73.2519 73.2519 72.8326 72.8326 72.4155 72.4155 72.0008 72.0008 71.5883 71.5883 71.1781 71.1781 70.7701 70.7701 70.3644 70.3644 69.961 69.961 69.5597 69.5597 69.1608 69.1608 68.764 68.764 68.3695 68.3695 67.9771 67.9771 67.587 67.587 67.1991 67.1991 66.8134 66.8134 66.4299 66.4299 66.0486 66.0486 65.6695 65.6695 65.2925 65.2925 64.9177 64.9177 64.5451 64.5451 64.1746 64.1746 63.8062 63.8062 63.4401 63.4401 63.076 63.076 62.7141 62.7141 62.3543 62.3543 61.9966 61.9966 61.641 61.641 61.2875 61.2875 60.936 60.936 60.5866 60.5866 60.2393 60.2393 59.894 59.894 59.5507 59.5507 59.2094 59.2094 58.8701 58.8701 58.5327 58.5327 58.1972 58.1972 57.8637 57.8637 57.532 57.532 57.2022 57.2022 56.8742 56.8742 56.548 56.548 56.2236 56.2236 55.901 55.901 55.5801 55.5801 55.2609 55.2609 54.9434 54.9434 54.6276 54.6276 54.3135 54.3135 54.001 54.001 53.6902 53.6902 53.381 53.381 53.0735 53.0735 52.7675 52.7675 52.4632 52.4632 52.1606 52.1606 51.8596 51.8596 51.5602 51.5602 51.2624 51.2624 50.9663 50.9663 50.6719 50.6719 50.3791 50.3791 50.0879 50.0879 49.7985 49.7985 49.5106 49.5106 49.2243 49.2243 48.9396 48.9396 48.6564 48.6564 48.3746 48.3746 48.094 48.094 47.8146 47.8146 47.5361 47.5361 47.2583 47.2583 46.9809 46.9809 46.7036 46.7036 46.4258 46.4258 46.1473 46.1473 45.8675 45.8675 45.5859 45.5859 45.302 45.302 45.0155 45.0155 44.7258 44.7258 44.4328 44.4328 44.1364 44.1364 43.8367 43.8367 43.5339 43.5339 43.2288 43.2288 42.9221 42.9221 42.6149 42.6149 42.3087 42.3087 42.0048 42.0048 41.7049 41.7049 41.4106 41.4106 41.1236 41.1236 40.8452 40.8452 40.5766 40.5766 40.319 40.319 40.0729 40.0729 39.8387 39.8387 39.6168 39.6168 39.4069 39.4069 39.2091 39.2091 39.0231 39.0231 38.8488 38.8488 38.6861 38.6861 38.5352 38.5352 38.3961 38.3961 38.2692 38.2692 38.1549 38.1549 38.0535 38.0535 37.9654 37.9654 37.8907 37.8907 37.8295 37.8295 37.7816 37.7816 37.7464 37.7464 37.7232 37.7232 37.711 37.711 37.7085 37.7085 37.714 37.714 37.7258 37.7258 37.7417 37.7417 37.7595 37.7595 37.7766 37.7766 37.7906 37.7906 37.7986 37.7986 37.798 37.798 37.7859 37.7859 37.7597 37.7597 37.7168 37.7168 37.655 37.655 37.5723 37.5723 37.4667 37.4667 37.3372 37.3372 37.1825 37.1825 37.0024 37.0024 36.7968 36.7968 36.5661 36.5661 36.3112 36.3112 36.0334 36.0334 35.7345 35.7345 35.4166 35.4166 35.082 35.082 34.7332 34.7332 34.3732 34.3732 34.0048 34.0048 33.6308 33.6308 33.2541 33.2541 32.8773 32.8773 32.5032 32.5032 32.1339 32.1339 31.7715 31.7715 31.4179 31.4179 31.0746 31.0746 30.7426 30.7426 30.4229 30.4229 30.116 30.116 29.8223 29.8223 29.5417 29.5417 29.274 29.274 29.0189 29.0189 28.7759 28.7759 28.5442 28.5442 28.3231 28.3231 28.1119 28.1119 27.9096 27.9096 27.7155 27.7155 27.5287 27.5287 27.3484 27.3484 27.1739 27.1739 27.0045 27.0045 26.8396 26.8396 26.6786 26.6786 26.5209 26.5209 26.3663 26.3663 26.2142 26.2142 26.0644 26.0644 25.9166 25.9166 25.7706 25.7706 25.6261 25.6261 25.4831 25.4831 25.3413 25.3413 25.2008 25.2008 25.0614 25.0614 24.923 24.923 24.7857 24.7857 24.6493 24.6493 24.5138 24.5138 24.3793 24.3793 24.2456 24.2456 24.1128 24.1128 23.9808 23.9808 23.8497 23.8497 23.7195 23.7195 23.59 23.59 23.4614 23.4614 23.3335 23.3335 23.2065 23.2065 23.0803 23.0803 22.9548 22.9548 22.8302 22.8302 22.7063 22.7063 22.5831 22.5831 22.4608 22.4608 22.3392 22.3392 22.2183 22.2183 22.0982 22.0982 21.9788 21.9788 21.8601 21.8601 21.7422 21.7422 21.625 21.625 21.5085 21.5085 21.3927 21.3927 21.2776 21.2776 21.1633 21.1633 21.0496 21.0496 20.9366 20.9366 20.8242 20.8242 20.7126 20.7126 20.6016 20.6016 20.4913 20.4913 20.3816 20.3816 20.2726 20.2726 20.1643 20.1643 20.0566 20.0566 19.9495 19.9495 19.8431 19.8431 19.7373 19.7373 19.6321 19.6321 19.5276 19.5276 19.4236 19.4236 19.3203 19.3203 19.2176 19.2176 19.1155 19.1155 19.0139 19.0139 18.913 18.913 18.8127 18.8127 18.7129 18.7129 18.6137 18.6137 18.5151 18.5151 18.4171 18.4171 18.3196 18.3196 18.2227 18.2227 18.1263 18.1263 18.0305 18.0305 17.9353 17.9353 17.8406 17.8406 17.7464 17.7464 17.6528 17.6528 17.5597 17.5597 17.4671 17.4671 17.3751 17.3751 17.2836 17.2836 17.1925 17.1925 17.1021 17.1021 17.0121 17.0121 16.9226 16.9226 16.8336 16.8336 16.7451 16.7451 16.6572 16.6572 16.5697 16.5697 16.4827 16.4827 16.3962 16.3962 16.3101 16.3101 16.2246 16.2246 16.1395 16.1395 16.0549 16.0549 15.9707 15.9707 15.887 15.887 15.8038 15.8038 15.721 15.721 15.6387 15.6387 15.5568 15.5568 15.4754 15.4754 15.3944 15.3944 15.3139 15.3139 15.2338 15.2338 15.1541 15.1541 15.0749 15.0749 14.9961 14.9961 14.9177 14.9177 14.8398 14.8398 14.7622 14.7622 14.6851 14.6851 14.6084 14.6084 14.5321 14.5321 14.4562 14.4562 14.3807 14.3807 14.3056 14.3056 14.231 14.231 14.1567 14.1567 14.0828 14.0828 14.0093 14.0093 13.9362 13.9362 13.8634 13.8634 13.7911 13.7911 13.7191 13.7191 13.6475 13.6475 13.5763 13.5763 13.5055 13.5055 13.435 13.435 13.3649 13.3649 13.2952 13.2952 13.2258 13.2258 13.1568 13.1568 13.0881 13.0881 13.0198 13.0198 12.9518 12.9518 12.8842 12.8842 12.817 12.817 12.7501 12.7501 12.6835 12.6835 12.6173 12.6173 12.5514 12.5514 12.4859 12.4859 12.4207 12.4207 12.3558 12.3558 12.2912 12.2912 12.227 12.227 12.1631 12.1631 12.0995 12.0995 12.0363 12.0363 11.9734 11.9734 11.9107 11.9107 11.8484 11.8484 11.7865 11.7865 11.7248 11.7248 11.6634 11.6634 11.6024 11.6024 11.5416 11.5416 11.4812 11.4812 11.421 11.421 11.3611 11.3611 11.3016 11.3016 11.2423 11.2423 11.1834 11.1834 11.1247 11.1247 11.0663 11.0663 11.0082 11.0082 10.9504 10.9504 10.8929 10.8929 10.8356 10.8356 10.7787 10.7787 10.722 10.722 10.6656 10.6656 10.6094 10.6094 10.5536 10.5536 10.498 10.498 10.4427 10.4427 10.3876 10.3876 10.3328 10.3328 10.2783 10.2783 10.2241 10.2241 10.1701 10.1701 10.1163 10.1163 10.0629 10.0629 10.0097 10.0097 9.9567 9.9567 9.90399 9.90399 9.85153 9.85153 9.79933 9.79933 9.74737 9.74737 9.69566 9.69566 9.6442 9.6442 9.59298 9.59298 9.542 9.542 9.49127 9.49127 9.44078 9.44078 9.39052 9.39052 9.3405 9.3405 9.29072 9.29072 9.24117 9.24117 9.19186 9.19186 9.14277 9.14277 9.09392 9.09392 9.04529 9.04529 8.99689 8.99689 8.94872 8.94872 8.90077 8.90077 8.85305 8.85305 8.80555 8.80555 8.75827 8.75827 8.7112 8.7112 8.66436 8.66436 8.61773 8.61773 8.57132 8.57132 8.52512 8.52512 8.47913 8.47913 8.43336 8.43336 8.38779 8.38779 8.34244 8.34244 8.29729 8.29729 8.25235 8.25235 8.20762 8.20762 8.16309 8.16309 8.11876 8.11876 8.07463 8.07463 8.03071 8.03071 7.98698 7.98698 7.94345 7.94345 7.90012 7.90012 7.85699 7.85699 7.81405 7.81405 7.77131 7.77131 7.72875 7.72875 7.68639 7.68639 7.64422 7.64422 7.60224 7.60224 7.56045 7.56045 7.51884 7.51884 7.47742 7.47742 7.43619 7.43619 7.39514 7.39514 7.35427 7.35427 7.31358 7.31358 7.27308 7.27308 7.23275 7.23275 7.19261 7.19261 7.15264 7.15264 7.11285 7.11285 7.07323 7.07323 7.03379 7.03379 6.99453 6.99453 6.95543 6.95543 6.91651 6.91651 6.87776 6.87776 6.83918 6.83918 6.80077 6.80077 6.76252 6.76252 6.72445 6.72445 6.68654 6.68654 6.64879 6.64879 6.61121 6.61121 6.5738 6.5738 6.53654 6.53654 6.49945 6.49945 6.46252 6.46252 6.42575 6.42575 6.38914 6.38914 6.35268 6.35268 6.31638 6.31638 6.28024 6.28024 6.24426 6.24426 6.20843 6.20843 6.17275 6.17275 6.13723 6.13723 6.10186 6.10186 6.06664 6.06664 6.03157 6.03157 5.99666 5.99666 5.96189 5.96189 5.92727 5.92727 5.89279 5.89279 5.85846 5.85846 5.82428 5.82428 5.79025 5.79025 5.75635 5.75635 5.72261 5.72261 5.689 5.689 5.65554 5.65554 5.62221 5.62221 5.58903 5.58903 5.55599 5.55599 5.52309 5.52309 5.49032 5.49032 5.45769 5.45769 5.4252 5.4252 5.39285 5.39285 5.36063 5.36063 5.32854 5.32854 5.29659 5.29659 5.26478 5.26478 5.23309 5.23309 5.20154 5.20154 5.17012 5.17012 5.13882 5.13882 5.10766 5.10766 5.07663 5.07663 5.04573 5.04573 5.01495 5.01495 4.9843 4.9843 4.95378 4.95378 4.92338 4.92338 4.89311 4.89311 4.86296 4.86296 4.83294 4.83294 4.80304 4.80304 4.77326 4.77326 4.7436 4.7436 4.71407 4.71407 4.68466 4.68466 4.65536 4.65536 4.62619 4.62619 4.59713 4.59713 4.5682 4.5682 4.53938 4.53938 4.51068 4.51068 4.48209 4.48209 4.45362 4.45362 4.42527 4.42527 4.39703 4.39703 4.3689 4.3689 4.34089 4.34089 4.31299 4.31299 4.2852 4.2852 4.25753 4.25753 4.22997 4.22997 4.20251 4.20251 4.17517 4.17517 4.14794 4.14794 4.12081 4.12081 4.0938 4.0938 4.06689 4.06689 4.04009 4.04009 4.0134 4.0134 3.98681 3.98681 3.96033 3.96033 3.93396 3.93396 3.90769 3.90769 3.88152 3.88152 3.85546 3.85546 3.8295 3.8295 3.80365 3.80365 3.77789 3.77789 3.75224 3.75224 3.72669 3.72669 3.70124 3.70124 3.67589 3.67589 3.65064 3.65064 3.62549 3.62549 3.60044 3.60044 3.57549 3.57549 3.55063 3.55063 3.52587 3.52587 3.50121 3.50121 3.47665 3.47665 3.45218 3.45218 3.4278 3.4278 3.40353 3.40353 3.37934 3.37934 3.35525 3.35525 3.33126 3.33126 3.30736 3.30736 3.28355 3.28355 3.25983 3.25983 3.23621 3.23621 3.21267 3.21267 3.18923 3.18923 3.16588 3.16588 3.14262 3.14262 3.11944 3.11944 3.09636 3.09636 3.07337 3.07337 3.05046 3.05046 3.02764 3.02764 3.00491 3.00491 2.98227 2.98227 2.95972 2.95972 2.93725 2.93725 2.91486 2.91486 2.89257 2.89257 2.87035 2.87035 2.84823 2.84823 2.82618 2.82618 2.80422 2.80422 2.78235 2.78235 2.76056 2.76056 2.73885 2.73885 2.71722 2.71722 2.69567 2.69567 2.67421 2.67421 2.65283 2.65283 2.63153 2.63153 2.61031 2.61031 2.58917 2.58917 2.56811 2.56811 2.54712 2.54712 2.52622 2.52622 2.5054 2.5054 2.48465 2.48465 2.46399 2.46399 2.4434 2.4434 2.42289 2.42289 2.40245 2.40245 2.38209 2.38209 2.36181 2.36181 2.3416 2.3416 2.32147 2.32147 2.30142 2.30142 2.28143 2.28143 2.26153 2.26153 2.2417 2.2417 2.22194 2.22194 2.20225 2.20225 2.18264 2.18264 2.1631 2.1631 2.14363 2.14363 2.12424 2.12424 2.10492 2.10492 2.08567 2.08567 2.06649 2.06649 2.04738 2.04738 2.02834 2.02834 2.00937 2.00937 1.99047 1.99047 1.97164 1.97164 1.95288 1.95288 1.93419 1.93419 1.91557 1.91557 1.89702 1.89702 1.87853 1.87853 1.86012 1.86012 1.84177 1.84177 1.82348 1.82348 1.80527 1.80527 1.78712 1.78712 1.76903 1.76903 1.75102 1.75102 1.73307 1.73307 1.71518 1.71518 1.69736 1.69736 1.6796 1.6796 1.66191 1.66191 1.64428 1.64428 1.62672 1.62672 1.60922 1.60922 1.59178 1.59178 1.57441 1.57441 1.5571 1.5571 1.53985 1.53985 1.52267 1.52267 1.50555 1.50555 1.48848 1.48848 1.47148 1.47148 1.45455 1.45455 1.43767 1.43767 1.42085 1.42085 1.4041 1.4041 1.3874 1.3874 1.37076 1.37076 1.35419 1.35419 1.33767 1.33767 1.32121 1.32121 1.30481 1.30481 1.28847 1.28847 1.27219 1.27219 1.25597 1.25597 1.2398 1.2398 1.22369 1.22369 1.20764 1.20764 1.19165 1.19165 1.17571 1.17571 1.15983 1.15983 1.14401 1.14401 1.12824 1.12824 1.11253 1.11253 1.09687 1.09687 1.08127 1.08127 1.06573 1.06573 1.05024 1.05024 1.0348 1.0348 1.01942 1.01942 1.00409 1.00409 0.988821 0.988821 0.973602 0.973602 0.958438 0.958438 0.943326 0.943326 0.928268 0.928268 0.913263 0.913263 0.89831 0.89831 0.88341 0.88341 0.868563 0.868563 0.853767 0.853767 0.839024 0.839024 0.824332 0.824332 0.809691 0.809691 0.795102 0.795102 0.780563 0.780563 0.766076 0.766076 0.751639 0.751639 0.737252 0.737252 0.722916 0.722916 0.708629 0.708629 0.694393 0.694393 0.680205 0.680205 0.666068 0.666068 0.651979 0.651979 0.637939 0.637939 0.623948 0.623948 0.610006 0.610006 0.596112 0.596112 0.582266 0.582266 0.568468 0.568468 0.554717 0.554717 0.541015 0.541015 0.527359 0.527359 0.513751 0.513751 0.50019 0.50019 0.486675 0.486675 0.473207 0.473207 0.459786 0.459786 0.446411 0.446411 0.433081 0.433081 0.419798 0.419798 0.40656 0.40656 0.393368 0.393368 0.380221 0.380221 0.367119 0.367119 0.354062 0.354062 0.34105 0.34105 0.328082 0.328082 0.315159 0.315159 0.30228 0.30228 0.289444 0.289444 0.276653 0.276653 0.263906 0.263906 0.251201 0.251201 0.238541 0.238541 0.225923 0.225923 0.213348 0.213348 0.200816 0.200816 0.188327 0.188327 0.17588 0.17588 0.163476 0.163476 0.151113 0.151113 0.138793 0.138793 0.126514 0.126514 0.114277 0.114277 0.102082 0.102082 0.0899275 0.0899275 0.0778144 0.0778144 0.0657422 0.0657422 0.0537108 0.0537108 0.0417201 0.0417201 0.0297698 0.0297698 0.0178599 0.0178599 0.00599011 0.00599011 -0.00583966 -0.00583966 -0.0176296 -0.0176296 -0.0293798 -0.0293798 -0.0410905 -0.0410905 -0.0527618 -0.0527618 -0.0643939 -0.0643939 -0.0759869 -0.0759869 -0.087541 -0.087541 -0.0990563 -0.0990563 -0.110533 -0.110533 -0.121971 -0.121971 -0.133371 -0.133371 -0.144733 -0.144733 -0.156057 -0.156057 -0.167342 -0.167342 -0.178591 -0.178591 -0.189801 -0.189801 -0.200974 -0.200974 -0.21211 -0.21211 -0.223209 -0.223209 -0.23427 -0.23427 -0.245295 -0.245295 -0.256283 -0.256283 -0.267235 -0.267235 -0.27815 -0.27815 -0.289029 -0.289029 -0.299872 -0.299872 -0.310678 -0.310678 -0.321449 -0.321449 -0.332184 -0.332184 -0.342883 -0.342883 -0.353547 -0.353547 -0.364176 -0.364176 -0.37477 -0.37477 -0.385328 -0.385328 -0.395851 -0.395851 -0.40634 -0.40634 -0.416794 -0.416794 -0.427214 -0.427214 -0.437599 -0.437599 -0.44795 -0.44795 -0.458266 -0.458266 -0.468549 -0.468549 -0.478798 -0.478798 -0.489013 -0.489013 -0.499194 -0.499194 -0.509342 -0.509342 -0.519457 -0.519457 -0.529538 -0.529538 -0.539586 -0.539586 -0.549602 -0.549602 -0.559584 -0.559584 -0.569534 -0.569534 -0.579451 -0.579451 -0.589335 -0.589335 -0.599187 -0.599187 -0.609007 -0.609007 -0.618795 -0.618795 -0.628551 -0.628551 -0.638275 -0.638275 -0.647967 -0.647967 -0.657627 -0.657627 -0.667256 -0.667256 -0.676853 -0.676853 -0.68642 -0.68642 -0.695955 -0.695955 -0.705458 -0.705458 -0.714931 -0.714931 -0.724374 -0.724374 -0.733785 -0.733785 -0.743166 -0.743166 -0.752516 -0.752516 -0.761836 -0.761836 -0.771126 -0.771126 -0.780385 -0.780385 -0.789614 -0.789614 -0.798814 -0.798814 -0.807984 -0.807984 -0.817124 -0.817124 -0.826234 -0.826234 -0.835315 -0.835315 -0.844366 -0.844366 -0.853388 -0.853388 -0.862381 -0.862381 -0.871345 -0.871345 -0.88028 -0.88028 -0.889186 -0.889186 -0.898064 -0.898064 -0.906912 -0.906912 -0.915733 -0.915733 -0.924524 -0.924524 -0.933288 -0.933288 -0.942023 -0.942023 -0.95073 -0.95073 -0.959409 -0.959409 -0.96806 -0.96806 -0.976683 -0.976683 -0.985279 -0.985279 -0.993847 -0.993847 -1.00239 -1.00239 -1.0109 -1.0109 -1.01939 -1.01939 -1.02784 -1.02784 -1.03628 -1.03628 -1.04468 -1.04468 -1.05306 -1.05306 -1.06141 -1.06141 -1.06973 -1.06973 -1.07803 -1.07803 -1.0863 -1.0863 -1.09454 -1.09454 -1.10276 -1.10276 -1.11095 -1.11095 -1.11912 -1.11912 -1.12726 -1.12726 -1.13537 -1.13537 -1.14346 -1.14346 -1.15152 -1.15152 -1.15956 -1.15956 -1.16757 -1.16757 -1.17555 -1.17555 -1.18351 -1.18351 -1.19145 -1.19145 -1.19935 -1.19935 -1.20724 -1.20724 -1.2151 -1.2151 -1.22293 -1.22293 -1.23074 -1.23074 -1.23852 -1.23852 -1.24628 -1.24628 -1.25402 -1.25402 -1.26173 -1.26173 -1.26941 -1.26941 -1.27707 -1.27707 -1.28471 -1.28471 -1.29232 -1.29232 -1.29991 -1.29991 -1.30748 -1.30748 -1.31502 -1.31502 -1.32254 -1.32254 -1.33003 -1.33003 -1.3375 -1.3375 -1.34494 -1.34494 -1.35237 -1.35237 -1.35977 -1.35977 -1.36714 -1.36714 -1.37449 -1.37449 -1.38182 -1.38182 -1.38913 -1.38913 -1.39641 -1.39641 -1.40367 -1.40367 -1.41091 -1.41091 -1.41812 -1.41812 -1.42531 -1.42531 -1.43248 -1.43248 -1.43963 -1.43963 -1.44675 -1.44675 -1.45386 -1.45386 -1.46094 -1.46094 -1.46799 -1.46799 -1.47503 -1.47503 -1.48204 -1.48204 -1.48903 -1.48903 -1.496 -1.496 -1.50295 -1.50295 -1.50987 -1.50987 -1.51678 -1.51678 -1.52366 -1.52366 -1.53052 -1.53052 -1.53736 -1.53736 -1.54417 -1.54417 -1.55097 -1.55097 -1.55774 -1.55774 -1.5645 -1.5645 -1.57123 -1.57123 -1.57794 -1.57794 -1.58463 -1.58463 -1.5913 -1.5913 -1.59795 -1.59795 -1.60458 -1.60458 -1.61119 -1.61119 -1.61777 -1.61777 -1.62434 -1.62434 -1.63088 -1.63088 -1.63741 -1.63741 -1.64391 -1.64391 -1.6504 -1.6504 -1.65686 -1.65686 -1.66331 -1.66331 -1.66973 -1.66973 -1.67614 -1.67614 -1.68252 -1.68252 -1.68888 -1.68888 -1.69523 -1.69523 -1.70155 -1.70155 -1.70786 -1.70786 -1.71415 -1.71415 -1.72041 -1.72041 -1.72666 -1.72666 -1.73289 -1.73289 -1.73909 -1.73909 -1.74528 -1.74528 -1.75145 -1.75145 -1.7576 -1.7576 -1.76373 -1.76373 -1.76985 -1.76985 -1.77594 -1.77594 -1.78201 -1.78201 -1.78807 -1.78807 -1.79411 -1.79411 -1.80012 -1.80012 -1.80612 -1.80612 -1.8121 -1.8121 -1.81807 -1.81807 -1.82401 -1.82401 -1.82994 -1.82994 -1.83584 -1.83584 -1.84173 -1.84173 -1.8476 -1.8476 -1.85346 -1.85346 -1.85929 -1.85929 -1.86511 -1.86511 -1.87091 -1.87091 -1.87669 -1.87669 -1.88245 -1.88245 -1.88819 -1.88819 -1.89392 -1.89392 -1.89963 -1.89963 -1.90532 -1.90532 -1.911 -1.911 -1.91666 -1.91666 -1.92229 -1.92229 -1.92792 -1.92792 -1.93352 -1.93352 -1.93911 -1.93911 -1.94468 -1.94468 -1.95023 -1.95023 -1.95577 -1.95577 -1.96129 -1.96129 -1.96679 -1.96679 -1.97228 -1.97228 -1.97775 -1.97775 -1.9832 -1.9832 -1.98863 -1.98863 -1.99405 -1.99405 -1.99945 -1.99945 -2.00484 -2.00484 -2.01021 -2.01021 -2.01556 -2.01556 -2.02089 -2.02089 -2.02621 -2.02621 -2.03151 -2.03151 -2.0368 -2.0368 -2.04207 -2.04207 -2.04733 -2.04733 -2.05256 -2.05256 -2.05779 -2.05779 -2.06299 -2.06299 -2.06818 -2.06818 -2.07336 -2.07336 -2.07851 -2.07851 -2.08366 -2.08366 -2.08878 -2.08878 -2.09389 -2.09389 -2.09899 -2.09899 -2.10407 -2.10407 -2.10913 -2.10913 -2.11418 -2.11418 -2.11922 -2.11922 -2.12423 -2.12423 -2.12924 -2.12924 -2.13422 -2.13422 -2.13919 -2.13919 -2.14415 -2.14415 -2.14909 -2.14909 -2.15402 -2.15402 -2.15893 -2.15893 -2.16383 -2.16383 -2.16871 -2.16871 -2.17358 -2.17358 -2.17843 -2.17843 -2.18326 -2.18326 -2.18809 -2.18809 -2.19289 -2.19289 -2.19769 -2.19769 -2.20246 -2.20246 -2.20723 -2.20723 -2.21198 -2.21198 -2.21671 -2.21671 -2.22143 -2.22143 -2.22614 -2.22614 -2.23083 -2.23083 -2.