# vtk DataFile Version 3.0
#This file was generated by the deal.II library on 2020/9/6 at 2:51:16
ASCII
DATASET UNSTRUCTURED_GRID

POINTS 4096 double
1.5 0 0
1.59692 0 0
1.59692 0 0
1.69385 0 0
1.69385 0 0
1.79077 0 0
1.79077 0 0
1.8877 0 0
1.8877 0 0
1.98462 0 0
1.98462 0 0
2.08154 0 0
2.08154 0 0
2.17847 0 0
2.17847 0 0
2.27539 0 0
2.27539 0 0
2.37231 0 0
2.37231 0 0
2.46924 0 0
2.46924 0 0
2.56616 0 0
2.56616 0 0
2.66309 0 0
2.66309 0 0
2.76001 0 0
2.76001 0 0
2.85693 0 0
2.85693 0 0
2.95386 0 0
2.95386 0 0
3.05078 0 0
3.05078 0 0
3.14771 0 0
3.14771 0 0
3.24463 0 0
3.24463 0 0
3.34155 0 0
3.34155 0 0
3.43848 0 0
3.43848 0 0
3.5354 0 0
3.5354 0 0
3.63232 0 0
3.63232 0 0
3.72925 0 0
3.72925 0 0
3.82617 0 0
3.82617 0 0
3.9231 0 0
3.9231 0 0
4.02002 0 0
4.02002 0 0
4.11694 0 0
4.11694 0 0
4.21387 0 0
4.21387 0 0
4.31079 0 0
4.31079 0 0
4.40771 0 0
4.40771 0 0
4.50464 0 0
4.50464 0 0
4.60156 0 0
4.60156 0 0
4.69849 0 0
4.69849 0 0
4.79541 0 0
4.79541 0 0
4.89233 0 0
4.89233 0 0
4.98926 0 0
4.98926 0 0
5.08618 0 0
5.08618 0 0
5.18311 0 0
5.18311 0 0
5.28003 0 0
5.28003 0 0
5.37695 0 0
5.37695 0 0
5.47388 0 0
5.47388 0 0
5.5708 0 0
5.5708 0 0
5.66772 0 0
5.66772 0 0
5.76465 0 0
5.76465 0 0
5.86157 0 0
5.86157 0 0
5.9585 0 0
5.9585 0 0
6.05542 0 0
6.05542 0 0
6.15234 0 0
6.15234 0 0
6.24927 0 0
6.24927 0 0
6.34619 0 0
6.34619 0 0
6.44312 0 0
6.44312 0 0
6.54004 0 0
6.54004 0 0
6.63696 0 0
6.63696 0 0
6.73389 0 0
6.73389 0 0
6.83081 0 0
6.83081 0 0
6.92773 0 0
6.92773 0 0
7.02466 0 0
7.02466 0 0
7.12158 0 0
7.12158 0 0
7.21851 0 0
7.21851 0 0
7.31543 0 0
7.31543 0 0
7.41235 0 0
7.41235 0 0
7.50928 0 0
7.50928 0 0
7.6062 0 0
7.6062 0 0
7.70312 0 0
7.70312 0 0
7.80005 0 0
7.80005 0 0
7.89697 0 0
7.89697 0 0
7.9939 0 0
7.9939 0 0
8.09082 0 0
8.09082 0 0
8.18774 0 0
8.18774 0 0
8.28467 0 0
8.28467 0 0
8.38159 0 0
8.38159 0 0
8.47852 0 0
8.47852 0 0
8.57544 0 0
8.57544 0 0
8.67236 0 0
8.67236 0 0
8.76929 0 0
8.76929 0 0
8.86621 0 0
8.86621 0 0
8.96313 0 0
8.96313 0 0
9.06006 0 0
9.06006 0 0
9.15698 0 0
9.15698 0 0
9.25391 0 0
9.25391 0 0
9.35083 0 0
9.35083 0 0
9.44775 0 0
9.44775 0 0
9.54468 0 0
9.54468 0 0
9.6416 0 0
9.6416 0 0
9.73853 0 0
9.73853 0 0
9.83545 0 0
9.83545 0 0
9.93237 0 0
9.93237 0 0
10.0293 0 0
10.0293 0 0
10.1262 0 0
10.1262 0 0
10.2231 0 0
10.2231 0 0
10.3201 0 0
10.3201 0 0
10.417 0 0
10.417 0 0
10.5139 0 0
10.5139 0 0
10.6108 0 0
10.6108 0 0
10.7078 0 0
10.7078 0 0
10.8047 0 0
10.8047 0 0
10.9016 0 0
10.9016 0 0
10.9985 0 0
10.9985 0 0
11.0955 0 0
11.0955 0 0
11.1924 0 0
11.1924 0 0
11.2893 0 0
11.2893 0 0
11.3862 0 0
11.3862 0 0
11.4832 0 0
11.4832 0 0
11.5801 0 0
11.5801 0 0
11.677 0 0
11.677 0 0
11.7739 0 0
11.7739 0 0
11.8708 0 0
11.8708 0 0
11.9678 0 0
11.9678 0 0
12.0647 0 0
12.0647 0 0
12.1616 0 0
12.1616 0 0
12.2585 0 0
12.2585 0 0
12.3555 0 0
12.3555 0 0
12.4524 0 0
12.4524 0 0
12.5493 0 0
12.5493 0 0
12.6462 0 0
12.6462 0 0
12.7432 0 0
12.7432 0 0
12.8401 0 0
12.8401 0 0
12.937 0 0
12.937 0 0
13.0339 0 0
13.0339 0 0
13.1309 0 0
13.1309 0 0
13.2278 0 0
13.2278 0 0
13.3247 0 0
13.3247 0 0
13.4216 0 0
13.4216 0 0
13.5186 0 0
13.5186 0 0
13.6155 0 0
13.6155 0 0
13.7124 0 0
13.7124 0 0
13.8093 0 0
13.8093 0 0
13.9062 0 0
13.9062 0 0
14.0032 0 0
14.0032 0 0
14.1001 0 0
14.1001 0 0
14.197 0 0
14.197 0 0
14.2939 0 0
14.2939 0 0
14.3909 0 0
14.3909 0 0
14.4878 0 0
14.4878 0 0
14.5847 0 0
14.5847 0 0
14.6816 0 0
14.6816 0 0
14.7786 0 0
14.7786 0 0
14.8755 0 0
14.8755 0 0
14.9724 0 0
14.9724 0 0
15.0693 0 0
15.0693 0 0
15.1663 0 0
15.1663 0 0
15.2632 0 0
15.2632 0 0
15.3601 0 0
15.3601 0 0
15.457 0 0
15.457 0 0
15.554 0 0
15.554 0 0
15.6509 0 0
15.6509 0 0
15.7478 0 0
15.7478 0 0
15.8447 0 0
15.8447 0 0
15.9417 0 0
15.9417 0 0
16.0386 0 0
16.0386 0 0
16.1355 0 0
16.1355 0 0
16.2324 0 0
16.2324 0 0
16.3293 0 0
16.3293 0 0
16.4263 0 0
16.4263 0 0
16.5232 0 0
16.5232 0 0
16.6201 0 0
16.6201 0 0
16.717 0 0
16.717 0 0
16.814 0 0
16.814 0 0
16.9109 0 0
16.9109 0 0
17.0078 0 0
17.0078 0 0
17.1047 0 0
17.1047 0 0
17.2017 0 0
17.2017 0 0
17.2986 0 0
17.2986 0 0
17.3955 0 0
17.3955 0 0
17.4924 0 0
17.4924 0 0
17.5894 0 0
17.5894 0 0
17.6863 0 0
17.6863 0 0
17.7832 0 0
17.7832 0 0
17.8801 0 0
17.8801 0 0
17.9771 0 0
17.9771 0 0
18.074 0 0
18.074 0 0
18.1709 0 0
18.1709 0 0
18.2678 0 0
18.2678 0 0
18.3647 0 0
18.3647 0 0
18.4617 0 0
18.4617 0 0
18.5586 0 0
18.5586 0 0
18.6555 0 0
18.6555 0 0
18.7524 0 0
18.7524 0 0
18.8494 0 0
18.8494 0 0
18.9463 0 0
18.9463 0 0
19.0432 0 0
19.0432 0 0
19.1401 0 0
19.1401 0 0
19.2371 0 0
19.2371 0 0
19.334 0 0
19.334 0 0
19.4309 0 0
19.4309 0 0
19.5278 0 0
19.5278 0 0
19.6248 0 0
19.6248 0 0
19.7217 0 0
19.7217 0 0
19.8186 0 0
19.8186 0 0
19.9155 0 0
19.9155 0 0
20.0125 0 0
20.0125 0 0
20.1094 0 0
20.1094 0 0
20.2063 0 0
20.2063 0 0
20.3032 0 0
20.3032 0 0
20.4001 0 0
20.4001 0 0
20.4971 0 0
20.4971 0 0
20.594 0 0
20.594 0 0
20.6909 0 0
20.6909 0 0
20.7878 0 0
20.7878 0 0
20.8848 0 0
20.8848 0 0
20.9817 0 0
20.9817 0 0
21.0786 0 0
21.0786 0 0
21.1755 0 0
21.1755 0 0
21.2725 0 0
21.2725 0 0
21.3694 0 0
21.3694 0 0
21.4663 0 0
21.4663 0 0
21.5632 0 0
21.5632 0 0
21.6602 0 0
21.6602 0 0
21.7571 0 0
21.7571 0 0
21.854 0 0
21.854 0 0
21.9509 0 0
21.9509 0 0
22.0479 0 0
22.0479 0 0
22.1448 0 0
22.1448 0 0
22.2417 0 0
22.2417 0 0
22.3386 0 0
22.3386 0 0
22.4355 0 0
22.4355 0 0
22.5325 0 0
22.5325 0 0
22.6294 0 0
22.6294 0 0
22.7263 0 0
22.7263 0 0
22.8232 0 0
22.8232 0 0
22.9202 0 0
22.9202 0 0
23.0171 0 0
23.0171 0 0
23.114 0 0
23.114 0 0
23.2109 0 0
23.2109 0 0
23.3079 0 0
23.3079 0 0
23.4048 0 0
23.4048 0 0
23.5017 0 0
23.5017 0 0
23.5986 0 0
23.5986 0 0
23.6956 0 0
23.6956 0 0
23.7925 0 0
23.7925 0 0
23.8894 0 0
23.8894 0 0
23.9863 0 0
23.9863 0 0
24.0833 0 0
24.0833 0 0
24.1802 0 0
24.1802 0 0
24.2771 0 0
24.2771 0 0
24.374 0 0
24.374 0 0
24.4709 0 0
24.4709 0 0
24.5679 0 0
24.5679 0 0
24.6648 0 0
24.6648 0 0
24.7617 0 0
24.7617 0 0
24.8586 0 0
24.8586 0 0
24.9556 0 0
24.9556 0 0
25.0525 0 0
25.0525 0 0
25.1494 0 0
25.1494 0 0
25.2463 0 0
25.2463 0 0
25.3433 0 0
25.3433 0 0
25.4402 0 0
25.4402 0 0
25.5371 0 0
25.5371 0 0
25.634 0 0
25.634 0 0
25.731 0 0
25.731 0 0
25.8279 0 0
25.8279 0 0
25.9248 0 0
25.9248 0 0
26.0217 0 0
26.0217 0 0
26.1187 0 0
26.1187 0 0
26.2156 0 0
26.2156 0 0
26.3125 0 0
26.3125 0 0
26.4094 0 0
26.4094 0 0
26.5063 0 0
26.5063 0 0
26.6033 0 0
26.6033 0 0
26.7002 0 0
26.7002 0 0
26.7971 0 0
26.7971 0 0
26.894 0 0
26.894 0 0
26.991 0 0
26.991 0 0
27.0879 0 0
27.0879 0 0
27.1848 0 0
27.1848 0 0
27.2817 0 0
27.2817 0 0
27.3787 0 0
27.3787 0 0
27.4756 0 0
27.4756 0 0
27.5725 0 0
27.5725 0 0
27.6694 0 0
27.6694 0 0
27.7664 0 0
27.7664 0 0
27.8633 0 0
27.8633 0 0
27.9602 0 0
27.9602 0 0
28.0571 0 0
28.0571 0 0
28.1541 0 0
28.1541 0 0
28.251 0 0
28.251 0 0
28.3479 0 0
28.3479 0 0
28.4448 0 0
28.4448 0 0
28.5417 0 0
28.5417 0 0
28.6387 0 0
28.6387 0 0
28.7356 0 0
28.7356 0 0
28.8325 0 0
28.8325 0 0
28.9294 0 0
28.9294 0 0
29.0264 0 0
29.0264 0 0
29.1233 0 0
29.1233 0 0
29.2202 0 0
29.2202 0 0
29.3171 0 0
29.3171 0 0
29.4141 0 0
29.4141 0 0
29.511 0 0
29.511 0 0
29.6079 0 0
29.6079 0 0
29.7048 0 0
29.7048 0 0
29.8018 0 0
29.8018 0 0
29.8987 0 0
29.8987 0 0
29.9956 0 0
29.9956 0 0
30.0925 0 0
30.0925 0 0
30.1895 0 0
30.1895 0 0
30.2864 0 0
30.2864 0 0
30.3833 0 0
30.3833 0 0
30.4802 0 0
30.4802 0 0
30.5771 0 0
30.5771 0 0
30.6741 0 0
30.6741 0 0
30.771 0 0
30.771 0 0
30.8679 0 0
30.8679 0 0
30.9648 0 0
30.9648 0 0
31.0618 0 0
31.0618 0 0
31.1587 0 0
31.1587 0 0
31.2556 0 0
31.2556 0 0
31.3525 0 0
31.3525 0 0
31.4495 0 0
31.4495 0 0
31.5464 0 0
31.5464 0 0
31.6433 0 0
31.6433 0 0
31.7402 0 0
31.7402 0 0
31.8372 0 0
31.8372 0 0
31.9341 0 0
31.9341 0 0
32.031 0 0
32.031 0 0
32.1279 0 0
32.1279 0 0
32.2249 0 0
32.2249 0 0
32.3218 0 0
32.3218 0 0
32.4187 0 0
32.4187 0 0
32.5156 0 0
32.5156 0 0
32.6125 0 0
32.6125 0 0
32.7095 0 0
32.7095 0 0
32.8064 0 0
32.8064 0 0
32.9033 0 0
32.9033 0 0
33.0002 0 0
33.0002 0 0
33.0972 0 0
33.0972 0 0
33.1941 0 0
33.1941 0 0
33.291 0 0
33.291 0 0
33.3879 0 0
33.3879 0 0
33.4849 0 0
33.4849 0 0
33.5818 0 0
33.5818 0 0
33.6787 0 0
33.6787 0 0
33.7756 0 0
33.7756 0 0
33.8726 0 0
33.8726 0 0
33.9695 0 0
33.9695 0 0
34.0664 0 0
34.0664 0 0
34.1633 0 0
34.1633 0 0
34.2603 0 0
34.2603 0 0
34.3572 0 0
34.3572 0 0
34.4541 0 0
34.4541 0 0
34.551 0 0
34.551 0 0
34.6479 0 0
34.6479 0 0
34.7449 0 0
34.7449 0 0
34.8418 0 0
34.8418 0 0
34.9387 0 0
34.9387 0 0
35.0356 0 0
35.0356 0 0
35.1326 0 0
35.1326 0 0
35.2295 0 0
35.2295 0 0
35.3264 0 0
35.3264 0 0
35.4233 0 0
35.4233 0 0
35.5203 0 0
35.5203 0 0
35.6172 0 0
35.6172 0 0
35.7141 0 0
35.7141 0 0
35.811 0 0
35.811 0 0
35.908 0 0
35.908 0 0
36.0049 0 0
36.0049 0 0
36.1018 0 0
36.1018 0 0
36.1987 0 0
36.1987 0 0
36.2957 0 0
36.2957 0 0
36.3926 0 0
36.3926 0 0
36.4895 0 0
36.4895 0 0
36.5864 0 0
36.5864 0 0
36.6833 0 0
36.6833 0 0
36.7803 0 0
36.7803 0 0
36.8772 0 0
36.8772 0 0
36.9741 0 0
36.9741 0 0
37.071 0 0
37.071 0 0
37.168 0 0
37.168 0 0
37.2649 0 0
37.2649 0 0
37.3618 0 0
37.3618 0 0
37.4587 0 0
37.4587 0 0
37.5557 0 0
37.5557 0 0
37.6526 0 0
37.6526 0 0
37.7495 0 0
37.7495 0 0
37.8464 0 0
37.8464 0 0
37.9434 0 0
37.9434 0 0
38.0403 0 0
38.0403 0 0
38.1372 0 0
38.1372 0 0
38.2341 0 0
38.2341 0 0
38.3311 0 0
38.3311 0 0
38.428 0 0
38.428 0 0
38.5249 0 0
38.5249 0 0
38.6218 0 0
38.6218 0 0
38.7188 0 0
38.7188 0 0
38.8157 0 0
38.8157 0 0
38.9126 0 0
38.9126 0 0
39.0095 0 0
39.0095 0 0
39.1064 0 0
39.1064 0 0
39.2034 0 0
39.2034 0 0
39.3003 0 0
39.3003 0 0
39.3972 0 0
39.3972 0 0
39.4941 0 0
39.4941 0 0
39.5911 0 0
39.5911 0 0
39.688 0 0
39.688 0 0
39.7849 0 0
39.7849 0 0
39.8818 0 0
39.8818 0 0
39.9788 0 0
39.9788 0 0
40.0757 0 0
40.0757 0 0
40.1726 0 0
40.1726 0 0
40.2695 0 0
40.2695 0 0
40.3665 0 0
40.3665 0 0
40.4634 0 0
40.4634 0 0
40.5603 0 0
40.5603 0 0
40.6572 0 0
40.6572 0 0
40.7542 0 0
40.7542 0 0
40.8511 0 0
40.8511 0 0
40.948 0 0
40.948 0 0
41.0449 0 0
41.0449 0 0
41.1418 0 0
41.1418 0 0
41.2388 0 0
41.2388 0 0
41.3357 0 0
41.3357 0 0
41.4326 0 0
41.4326 0 0
41.5295 0 0
41.5295 0 0
[...]
POINT_DATA 4096
SCALARS solution_0 double 1
LOOKUP_TABLE default
1749.27 1712.99 1712.99 1682.4 1682.4 1656.34 1656.34 1633.92 1633.92 1614.46 1614.46 1597.43 1597.43 1582.39 1582.39 1569 1569 1556.99 1556.99 1546.12 1546.12 1536.22 1536.22 1527.13 1527.13 1518.72 1518.72 1510.89 1510.89 1503.54 1503.54 1496.61 1496.61 1490.02 1490.02 1483.72 1483.72 1477.67 1477.67 1471.83 1471.83 1466.17 1466.17 1460.64 1460.64 1455.24 1455.24 1449.94 1449.94 1444.72 1444.72 1439.56 1439.56 1434.45 1434.45 1429.39 1429.39 1424.35 1424.35 1419.33 1419.33 1414.32 1414.32 1409.32 1409.32 1404.33 1404.33 1399.33 1399.33 1394.32 1394.32 1389.3 1389.3 1384.26 1384.26 1379.21 1379.21 1374.15 1374.15 1369.06 1369.06 1363.95 1363.95 1358.82 1358.82 1353.67 1353.67 1348.5 1348.5 1343.31 1343.31 1338.09 1338.09 1332.85 1332.85 1327.58 1327.58 1322.3 1322.3 1316.99 1316.99 1311.66 1311.66 1306.32 1306.32 1300.95 1300.95 1295.56 1295.56 1290.16 1290.16 1284.73 1284.73 1279.29 1279.29 1273.83 1273.83 1268.36 1268.36 1262.88 1262.88 1257.38 1257.38 1251.86 1251.86 1246.34 1246.34 1240.8 1240.8 1235.26 1235.26 1229.71 1229.71 1224.14 1224.14 1218.57 1218.57 1213 1213 1207.41 1207.41 1201.83 1201.83 1196.24 1196.24 1190.64 1190.64 1185.05 1185.05 1179.45 1179.45 1173.85 1173.85 1168.25 1168.25 1162.65 1162.65 1157.05 1157.05 1151.46 1151.46 1145.87 1145.87 1140.28 1140.28 1134.7 1134.7 1129.12 1129.12 1123.54 1123.54 1117.97 1117.97 1112.41 1112.41 1106.86 1106.86 1101.31 1101.31 1095.78 1095.78 1090.25 1090.25 1084.73 1084.73 1079.22 1079.22 1073.72 1073.72 1068.24 1068.24 1062.76 1062.76 1057.3 1057.3 1051.85 1051.85 1046.41 1046.41 1040.98 1040.98 1035.57 1035.57 1030.18 1030.18 1024.79 1024.79 1019.43 1019.43 1014.07 1014.07 1008.74 1008.74 1003.41 1003.41 998.109 998.109 992.821 992.821 987.549 987.549 982.294 982.294 977.057 977.057 971.837 971.837 966.636 966.636 961.452 961.452 956.286 956.286 951.14 951.14 946.012 946.012 940.903 940.903 935.813 935.813 930.743 930.743 925.692 925.692 920.661 920.661 915.65 915.65 910.659 910.659 905.688 905.688 900.738 900.738 895.808 895.808 890.899 890.899 886.01 886.01 881.143 881.143 876.297 876.297 871.471 871.471 866.667 866.667 861.884 861.884 857.123 857.123 852.383 852.383 847.664 847.664 842.968 842.968 838.292 838.292 833.639 833.639 829.007 829.007 824.398 824.398 819.81 819.81 815.244 815.244 810.7 810.7 806.178 806.178 801.677 801.677 797.199 797.199 792.743 792.743 788.31 788.31 783.898 783.898 779.508 779.508 775.14 775.14 770.795 770.795 766.471 766.471 762.169 762.169 757.89 757.89 753.633 753.633 749.397 749.397 745.184 745.184 740.993 740.993 736.823 736.823 732.676 732.676 728.55 728.55 724.446 724.446 720.364 720.364 716.304 716.304 712.266 712.266 708.249 708.249 704.254 704.254 700.281 700.281 696.329 696.329 692.399 692.399 688.49 688.49 684.603 684.603 680.736 680.736 676.892 676.892 673.068 673.068 669.266 669.266 665.484 665.484 661.724 661.724 657.985 657.985 654.267 654.267 650.569 650.569 646.893 646.893 643.237 643.237 639.601 639.601 635.986 635.986 632.392 632.392 628.818 628.818 625.265 625.265 621.731 621.731 618.218 618.218 614.725 614.725 611.252 611.252 607.799 607.799 604.366 604.366 600.953 600.953 597.559 597.559 594.185 594.185 590.83 590.83 587.495 587.495 584.179 584.179 580.883 580.883 577.605 577.605 574.347 574.347 571.108 571.108 567.888 567.888 564.686 564.686 561.503 561.503 558.339 558.339 555.194 555.194 552.067 552.067 548.958 548.958 545.868 545.868 542.796 542.796 539.742 539.742 536.706 536.706 533.687 533.687 530.687 530.687 527.705 527.705 524.74 524.74 521.793 521.793 518.863 518.863 515.951 515.951 513.056 513.056 510.178 510.178 507.317 507.317 504.473 504.473 501.646 501.646 498.836 498.836 496.043 496.043 493.267 493.267 490.507 490.507 487.763 487.763 485.036 485.036 482.325 482.325 479.63 479.63 476.952 476.952 474.289 474.289 471.643 471.643 469.012 469.012 466.397 466.397 463.798 463.798 461.214 461.214 458.645 458.645 456.092 456.092 453.555 453.555 451.032 451.032 448.525 448.525 446.033 446.033 443.555 443.555 441.093 441.093 438.645 438.645 436.212 436.212 433.794 433.794 431.39 431.39 429 429 426.625 426.625 424.264 424.264 421.917 421.917 419.584 419.584 417.266 417.266 414.961 414.961 412.67 412.67 410.392 410.392 408.129 408.129 405.879 405.879 403.642 403.642 401.419 401.419 399.209 399.209 397.012 397.012 394.829 394.829 392.658 392.658 390.501 390.501 388.356 388.356 386.225 386.225 384.106 384.106 381.999 381.999 379.906 379.906 377.825 377.825 375.756 375.756 373.699 373.699 371.655 371.655 369.623 369.623 367.604 367.604 365.596 365.596 363.6 363.6 361.616 361.616 359.644 359.644 357.684 357.684 355.735 355.735 353.798 353.798 351.872 351.872 349.958 349.958 348.055 348.055 346.164 346.164 344.284 344.284 342.415 342.415 340.557 340.557 338.71 338.71 336.874 336.874 335.048 335.048 333.234 333.234 331.43 331.43 329.637 329.637 327.855 327.855 326.083 326.083 324.322 324.322 322.571 322.571 320.83 320.83 319.099 319.099 317.379 317.379 315.669 315.669 313.969 313.969 312.279 312.279 310.599 310.599 308.928 308.928 307.268 307.268 305.617 305.617 303.976 303.976 302.344 302.344 300.722 300.722 299.109 299.109 297.506 297.506 295.913 295.913 294.328 294.328 292.753 292.753 291.187 291.187 289.63 289.63 288.082 288.082 286.543 286.543 285.013 285.013 283.492 283.492 281.979 281.979 280.476 280.476 278.981 278.981 277.495 277.495 276.017 276.017 274.548 274.548 273.088 273.088 271.636 271.636 270.192 270.192 268.756 268.756 267.329 267.329 265.91 265.91 264.499 264.499 263.097 263.097 261.702 261.702 260.316 260.316 258.937 258.937 257.566 257.566 256.203 256.203 254.848 254.848 253.5 253.5 252.161 252.161 250.829 250.829 249.504 249.504 248.187 248.187 246.877 246.877 245.575 245.575 244.28 244.28 242.992 242.992 241.712 241.712 240.439 240.439 239.173 239.173 237.914 237.914 236.661 236.661 235.416 235.416 234.178 234.178 232.946 232.946 231.722 231.722 230.504 230.504 229.293 229.293 228.088 228.088 226.89 226.89 225.698 225.698 224.513 224.513 223.334 223.334 222.162 222.162 220.996 220.996 219.837 219.837 218.684 218.684 217.537 217.537 216.396 216.396 215.261 215.261 214.133 214.133 213.01 213.01 211.894 211.894 210.783 210.783 209.679 209.679 208.58 208.58 207.487 207.487 206.399 206.399 205.317 205.317 204.24 204.24 203.168 203.168 202.101 202.101 201.038 201.038 199.981 199.981 198.927 198.927 197.877 197.877 196.831 196.831 195.789 195.789 194.75 194.75 193.713 193.713 192.68 192.68 191.65 191.65 190.622 190.622 189.597 189.597 188.575 188.575 187.556 187.556 186.541 186.541 185.53 185.53 184.523 184.523 183.522 183.522 182.526 182.526 181.537 181.537 180.556 180.556 179.583 179.583 178.62 178.62 177.666 177.666 176.724 176.724 175.793 175.793 174.874 174.874 173.967 173.967 173.074 173.074 172.194 172.194 171.327 171.327 170.474 170.474 169.635 169.635 168.81 168.81 167.998 167.998 167.201 167.201 166.417 166.417 165.647 165.647 164.891 164.891 164.149 164.149 163.419 163.419 162.702 162.702 161.998 161.998 161.306 161.306 160.624 160.624 159.952 159.952 159.29 159.29 158.635 158.635 157.986 157.986 157.343 157.343 156.702 156.702 156.063 156.063 155.423 155.423 154.781 154.781 154.135 154.135 153.484 153.484 152.824 152.824 152.155 152.155 151.475 151.475 150.783 150.783 150.078 150.078 149.359 149.359 148.625 148.625 147.876 147.876 147.112 147.112 146.333 146.333 145.54 145.54 144.733 144.733 143.914 143.914 143.083 143.083 142.243 142.243 141.395 141.395 140.54 140.54 139.681 139.681 138.819 138.819 137.957 137.957 137.096 137.096 136.238 136.238 135.384 135.384 134.537 134.537 133.697 133.697 132.866 132.866 132.044 132.044 131.234 131.234 130.434 130.434 129.646 129.646 128.87 128.87 128.106 128.106 127.355 127.355 126.614 126.614 125.886 125.886 125.168 125.168 124.462 124.462 123.765 123.765 123.078 123.078 122.399 122.399 121.73 121.73 121.068 121.068 120.413 120.413 119.765 119.765 119.124 119.124 118.488 118.488 117.858 117.858 117.232 117.232 116.612 116.612 115.995 115.995 115.383 115.383 114.775 114.775 114.171 114.171 113.57 113.57 112.973 112.973 112.378 112.378 111.788 111.788 111.2 111.2 110.615 110.615 110.034 110.034 109.455 109.455 108.879 108.879 108.306 108.306 107.736 107.736 107.169 107.169 106.605 106.605 106.043 106.043 105.484 105.484 104.928 104.928 104.374 104.374 103.824 103.824 103.276 103.276 102.73 102.73 102.187 102.187 101.647 101.647 101.11 101.11 100.575 100.575 100.043 100.043 99.5128 99.5128 98.9856 98.9856 98.4609 98.4609 97.9387 97.9387 97.4191 97.4191 96.9019 96.9019 96.3872 96.3872 95.8749 95.8749 95.3651 95.3651 94.8577 94.8577 94.3527 94.3527 93.8501 93.8501 93.3499 93.3499 92.852 92.852 92.3566 92.3566 91.8634 91.8634 91.3726 91.3726 90.884 90.884 90.3978 90.3978 89.9139 89.9139 89.4322 89.4322 88.9528 88.9528 88.4756 88.4756 88.0007 88.0007 87.5279 87.5279 87.0574 87.0574 86.589 86.589 86.1229 86.1229 85.6589 85.6589 85.197 85.197 84.7373 84.7373 84.2797 84.2797 83.8242 83.8242 83.3708 83.3708 82.9195 82.9195 82.4703 82.4703 82.0231 82.0231 81.578 81.578 81.1349 81.1349 80.6938 80.6938 80.2548 80.2548 79.8178 79.8178 79.3827 79.3827 78.9496 78.9496 78.5185 78.5185 78.0894 78.0894 77.6622 77.6622 77.2369 77.2369 76.8136 76.8136 76.3921 76.3921 75.9726 75.9726 75.555 75.555 75.1392 75.1392 74.7253 74.7253 74.3132 74.3132 73.9031 73.9031 73.4947 73.4947 73.0882 73.0882 72.6834 72.6834 72.2805 72.2805 71.8794 71.8794 71.48 71.48 71.0825 71.0825 70.6867 70.6867 70.2926 70.2926 69.9003 69.9003 69.5098 69.5098 69.1209 69.1209 68.7338 68.7338 68.3484 68.3484 67.9646 67.9646 67.5826 67.5826 67.2022 67.2022 66.8235 66.8235 66.4465 66.4465 66.0711 66.0711 65.6973 65.6973 65.3252 65.3252 64.9547 64.9547 64.5858 64.5858 64.2185 64.2185 63.8528 63.8528 63.4887 63.4887 63.1262 63.1262 62.7652 62.7652 62.4058 62.4058 62.0479 62.0479 61.6916 61.6916 61.3369 61.3369 60.9836 60.9836 60.6319 60.6319 60.2817 60.2817 59.9329 59.9329 59.5857 59.5857 59.24 59.24 58.8957 58.8957 58.5529 58.5529 58.2116 58.2116 57.8717 57.8717 57.5332 57.5332 57.1962 57.1962 56.8607 56.8607 56.5265 56.5265 56.1938 56.1938 55.8625 55.8625 55.5325 55.5325 55.204 55.204 54.8769 54.8769 54.5511 54.5511 54.2267 54.2267 53.9036 53.9036 53.5819 53.5819 53.2616 53.2616 52.9426 52.9426 52.625 52.625 52.3086 52.3086 51.9936 51.9936 51.6799 51.6799 51.3675 51.3675 51.0564 51.0564 50.7466 50.7466 50.4381 50.4381 50.1308 50.1308 49.8249 49.8249 49.5202 49.5202 49.2167 49.2167 48.9146 48.9146 48.6136 48.6136 48.3139 48.3139 48.0154 48.0154 47.7182 47.7182 47.4222 47.4222 47.1274 47.1274 46.8338 46.8338 46.5414 46.5414 46.2502 46.2502 45.9602 45.9602 45.6713 45.6713 45.3837 45.3837 45.0972 45.0972 44.8119 44.8119 44.5277 44.5277 44.2447 44.2447 43.9629 43.9629 43.6822 43.6822 43.4026 43.4026 43.1242 43.1242 42.8468 42.8468 42.5706 42.5706 42.2956 42.2956 42.0216 42.0216 41.7487 41.7487 41.4769 41.4769 41.2062 41.2062 40.9366 40.9366 40.6681 40.6681 40.4007 40.4007 40.1343 40.1343 39.869 39.869 39.6047 39.6047 39.3415 39.3415 39.0794 39.0794 38.8182 38.8182 38.5582 38.5582 38.2991 38.2991 38.0411 38.0411 37.7841 37.7841 37.5282 37.5282 37.2732 37.2732 37.0193 37.0193 36.7663 36.7663 36.5144 36.5144 36.2634 36.2634 36.0134 36.0134 35.7645 35.7645 35.5165 35.5165 35.2694 35.2694 35.0234 35.0234 34.7783 34.7783 34.5341 34.5341 34.2909 34.2909 34.0487 34.0487 33.8074 33.8074 33.5671 33.5671 33.3277 33.3277 33.0892 33.0892 32.8516 32.8516 32.615 32.615 32.3793 32.3793 32.1445 32.1445 31.9106 31.9106 31.6776 31.6776 31.4456 31.4456 31.2144 31.2144 30.9841 30.9841 30.7547 30.7547 30.5262 30.5262 30.2985 30.2985 30.0718 30.0718 29.8459 29.8459 29.6209 29.6209 29.3967 29.3967 29.1734 29.1734 28.951 28.951 28.7294 28.7294 28.5086 28.5086 28.2887 28.2887 28.0697 28.0697 27.8514 27.8514 27.6341 27.6341 27.4175 27.4175 27.2017 27.2017 26.9868 26.9868 26.7727 26.7727 26.5594 26.5594 26.3469 26.3469 26.1353 26.1353 25.9244 25.9244 25.7143 25.7143 25.505 25.505 25.2965 25.2965 25.0888 25.0888 24.8818 24.8818 24.6757 24.6757 24.4703 24.4703 24.2657 24.2657 24.0619 24.0619 23.8588 23.8588 23.6565 23.6565 23.4549 23.4549 23.2541 23.2541 23.0541 23.0541 22.8548 22.8548 22.6562 22.6562 22.4584 22.4584 22.2613 22.2613 22.065 22.065 21.8694 21.8694 21.6745 21.6745 21.4803 21.4803 21.2869 21.2869 21.0942 21.0942 20.9021 20.9021 20.7108 20.7108 20.5202 20.5202 20.3304 20.3304 20.1412 20.1412 19.9527 19.9527 19.7649 19.7649 19.5778 19.5778 19.3914 19.3914 19.2056 19.2056 19.0206 19.0206 18.8362 18.8362 18.6525 18.6525 18.4695 18.4695 18.2872 18.2872 18.1055 18.1055 17.9245 17.9245 17.7441 17.7441 17.5645 17.5645 17.3854 17.3854 17.207 17.207 17.0293 17.0293 16.8522 16.8522 16.6758 16.6758 16.5 16.5 16.3248 16.3248 16.1503 16.1503 15.9764 15.9764 15.8031 15.8031 15.6305 15.6305 15.4585 15.4585 15.2871 15.2871 15.1163 15.1163 14.9462 14.9462 14.7767 14.7767 14.6077 14.6077 14.4394 14.4394 14.2717 14.2717 14.1046 14.1046 13.9381 13.9381 13.7722 13.7722 13.6069 13.6069 13.4422 13.4422 13.278 13.278 13.1145 13.1145 12.9515 12.9515 12.7892 12.7892 12.6274 12.6274 12.4662 12.4662 12.3055 12.3055 12.1455 12.1455 11.986 11.986 11.827 11.827 11.6687 11.6687 11.5109 11.5109 11.3536 11.3536 11.197 11.197 11.0408 11.0408 10.8853 10.8853 10.7302 10.7302 10.5758 10.5758 10.4219 10.4219 10.2685 10.2685 10.1156 10.1156 9.96334 9.96334 9.81158 9.81158 9.66036 9.66036 9.50967 9.50967 9.35951 9.35951 9.20988 9.20988 9.06077 9.06077 8.91219 8.91219 8.76413 8.76413 8.61659 8.61659 8.46957 8.46957 8.32306 8.32306 8.17707 8.17707 8.03159 8.03159 7.88662 7.88662 7.74215 7.74215 7.59819 7.59819 7.45473 7.45473 7.31177 7.31177 7.16931 7.16931 7.02735 7.02735 6.88588 6.88588 6.7449 6.7449 6.60441 6.60441 6.46441 6.46441 6.3249 6.3249 6.18587 6.18587 6.04733 6.04733 5.90926 5.90926 5.77167 5.77167 5.63456 5.63456 5.49792 5.49792 5.36176 5.36176 5.22606 5.22606 5.09084 5.09084 4.95608 4.95608 4.82178 4.82178 4.68795 4.68795 4.55458 4.55458 4.42167 4.42167 4.28922 4.28922 4.15722 4.15722 4.02567 4.02567 3.89458 3.89458 3.76393 3.76393 3.63374 3.63374 3.50399 3.50399 3.37468 3.37468 3.24582 3.24582 3.1174 3.1174 2.98942 2.98942 2.86187 2.86187 2.73476 2.73476 2.60808 2.60808 2.48184 2.48184 2.35602 2.35602 2.23064 2.23064 2.10568 2.10568 1.98115 1.98115 1.85704 1.85704 1.73335 1.73335 1.61008 1.61008 1.48723 1.48723 1.3648 1.3648 1.24278 1.24278 1.12118 1.12118 0.999983 0.999983 0.879201 0.879201 0.758827 0.758827 0.63886 0.63886 0.519298 0.519298 0.40014 0.40014 0.281384 0.281384 0.163028 0.163028 0.0450719 0.0450719 -0.0724871 -0.0724871 -0.18965 -0.18965 -0.306419 -0.306419 -0.422796 -0.422796 -0.538781 -0.538781 -0.654376 -0.654376 -0.769583 -0.769583 -0.884404 -0.884404 -0.99884 -0.99884 -1.11289 -1.11289 -1.22656 -1.22656 -1.33985 -1.33985 -1.45276 -1.45276 -1.56529 -1.56529 -1.67745 -1.67745 -1.78923 -1.78923 -1.90064 -1.90064 -2.01168 -2.01168 -2.12234 -2.12234 -2.23264 -2.23264 -2.34257 -2.34257 -2.45213 -2.45213 -2.56133 -2.56133 -2.67017 -2.67017 -2.77864 -2.77864 -2.88676 -2.88676 -2.99451 -2.99451 -3.10191 -3.10191 -3.20895 -3.20895 -3.31563 -3.31563 -3.42197 -3.42197 -3.52795 -3.52795 -3.63357 -3.63357 -3.73885 -3.73885 -3.84378 -3.84378 -3.94837 -3.94837 -4.05261 -4.05261 -4.1565 -4.1565 -4.26005 -4.26005 -4.36326 -4.36326 -4.46613 -4.46613 -4.56866 -4.56866 -4.67085 -4.67085 -4.77271 -4.77271 -4.87423 -4.87423 -4.97542 -4.97542 -5.07627 -5.07627 -5.1768 -5.1768 -5.27699 -5.27699 -5.37685 -5.37685 -5.47639 -5.47639 -5.5756 -5.5756 -5.67448 -5.67448 -5.77304 -5.77304 -5.87128 -5.87128 -5.9692 -5.9692 -6.06679 -6.06679 -6.16407 -6.16407 -6.26103 -6.26103 -6.35767 -6.35767 -6.454 -6.454 -6.55001 -6.55001 -6.64571 -6.64571 -6.74109 -6.74109 -6.83617 -6.83617 -6.93094 -6.93094 -7.02539 -7.02539 -7.11954 -7.11954 -7.21339 -7.21339 -7.30693 -7.30693 -7.40016 -7.40016 -7.49309 -7.49309 -7.58572 -7.58572 -7.67805 -7.67805 -7.77008 -7.77008 -7.86181 -7.86181 -7.95325 -7.95325 -8.04438 -8.04438 -8.13523 -8.13523 -8.22578 -8.22578 -8.31603 -8.31603 -8.40599 -8.40599 -8.49567 -8.49567 -8.58505 -8.58505 -8.67414 -8.67414 -8.76295 -8.76295 -8.85147 -8.85147 -8.93971 -8.93971 -9.02766 -9.02766 -9.11532 -9.11532 -9.20271 -9.20271 -9.28981 -9.28981 -9.37663 -9.37663 -9.46318 -9.46318 -9.54944 -9.54944 -9.63543 -9.63543 -9.72114 -9.72114 -9.80658 -9.80658 -9.89174 -9.89174 -9.97663 -9.97663 -10.0612 -10.0612 -10.1456 -10.1456 -10.2297 -10.2297 -10.3135 -10.3135 -10.397 -10.397 -10.4803 -10.4803 -10.5633 -10.5633 -10.646 -10.646 -10.7285 -10.7285 -10.8107 -10.8107 -10.8926 -10.8926 -10.9743 -10.9743 -11.0557 -11.0557 -11.1369 -11.1369 -11.2178 -11.2178 -11.2985 -11.2985 -11.3789 -11.3789 -11.459 -11.459 -11.5389 -11.5389 -11.6185 -11.6185 -11.6979 -11.6979 -11.777 -11.777 -11.8558 -11.8558 -11.9345 -11.9345 -12.0128 -12.0128 -12.0909 -12.0909 -12.1688 -12.1688 -12.2464 -12.2464 -12.3238 -12.3238 -12.4009 -12.4009 -12.4778 -12.4778 -12.5545 -12.5545 -12.6309 -12.6309 -12.707 -12.707 -12.7829 -12.7829 -12.8586 -12.8586 -12.9341 -12.9341 -13.0093 -13.0093 -13.0842 -13.0842 -13.1589 -13.1589 -13.2334 -13.2334 -13.3077 -13.3077 -13.3817 -13.3817 -13.4555 -13.4555 -13.529 -13.529 -13.6023 -13.6023 -13.6754 -13.6754 -13.7483 -13.7483 -13.8209 -13.8209 -13.8933 -13.8933 -13.9655 -13.9655 -14.0374 -14.0374 -14.1092 -14.1092 -14.1806 -14.1806 -14.2519 -14.2519 -14.323 -14.323 -14.3938 -14.3938 -14.4644 -14.4644 -14.5348 -14.5348 -14.6049 -14.6049 -14.6748 -14.6748 -14.7446 -14.7446 -14.8141 -14.8141 -14.8833 -14.8833 -14.9524 -14.9524 -15.0212 -15.0212 -15.0899 -15.0899 -15.1583 -15.1583 -15.2265 -15.2265 -15.2945 -15.2945 -15.3623 -15.3623 -15.4298 -15.4298 -15.4972 -15.4972 -15.5643 -15.5643 -15.6312 -15.6312 -15.698 -15.698 -15.7645 -15.7645 -15.8308 -15.8308 -15.8969 -15.8969 -15.9628 -15.9628 -16.0285 -16.0285 -16.094 -16.094 -16.1592 -16.1592 -16.2243 -16.2243 -16.2892 -16.2892 -16.3539 -16.3539 -16.4183 -16.4183 -16.4826 -16.4826 -16.5467 -16.5467 -16.6105 -16.6105 -16.6742 -16.6742 -16.7377 -16.7377 -16.801 -16.801 -16.864 -16.864 -16.9269 -16.9269 -16.9896 -16.9896 -17.0521 -17.0521 -17.1144 -17.1144 -17.1765 -17.1765 -17.2384 -17.2384 -17.3001 -17.3001 -17.3617 -17.3617 -17.423 -17.423 -17.4842 -17.4842 -17.5451 -17.5451 -17.6059 -17.6059 -17.6665 -17.6665 -17.7269 -17.7269 -17.7871 -17.7871 -17.8471 -17.8471 -17.9069 -17.9069 -17.9666 -17.9666 -18.0261 -18.0261 -18.0854 -18.0854 -18.1445 -18.1445 -18.2034 -18.2034 -18.2621 -18.2621 -18.3207 -18.3207 -18.379 -18.379 -18.4372 -18.4372 -18.4952 -18.4952 -18.5531 -18.5531 -18.6107 -18.6107 -18.6682 -18.6682 -18.7255 -18.7255 -18.7826 -18.7826 -18.8396 -18.8396 -18.8964 -18.8964 -18.953 -18.953 -19.0094 -19.0094 -19.0656 -19.0656 -19.1217 -19.1217 -19.1776 -19.1776 -19.2334 -19.2334 -19.2889 -19.2889 -19.3443 -19.3443 -19.3995 -19.3995 -19.4546 -19.4546 -19.5095 -19.5095 -19.5642 -19.5642 -19.6187 -19.6187 -19.6731 -19.6731 -19.7273 -19.7273 -19.7814 -19.7814 -19.8352 -19.8352 -19.8889 -19.8889 -19.9425 -19.9425 -19.9959 -19.9959 -20.0491 -20.0491 -20.1022 -20.1022 -20.155 -20.155 -20.2078 -20.2078 -20.2603 -20.2603 -20.3128 -20.3128 -20.365 -20.365 -20.4171 -20.4171 -20.469 -20.469 -20.5208 -20.5208 -20.5724 -20.5724 -20.6239 -20.6239 -20.6752 -20.6752 -20.7263 -20.7263 -20.7773 -20.7773 -20.8281 -20.8281 -20.8788 -20.8788 -20.9293 -20.9293 -20.9797 -20.9797 -21.0299 -21.0299 -21.0799 -21.0799 -21.1298 -21.1298 -21.1796 -21.1796 -21.2292 -21.2292 -21.2786 -21.2786 -21.3279 -21.3279 -21.377 -21.377 -21.426 -21.426 -21.4749 -21.4749 -21.5236 -21.5236 -21.5721 -21.5721 -21.6205 -21.6205 -21.6688 -21.6688 -21.7169 -21.7169 -21.7648 -21.7648 -21.8126 -21.8126 -21.8603 -21.8603 -21.9078 -21.9078 -21.9552 -21.9552 -22.0024 -22.0024 -22.0495 -22.0495 -22.0965 -22.0965 -22.1433 -22.1433 -22.1899 -22.1899 -22.2364 -22.2364 -22.2828 -22.2828 -22.329 -22.329 -22.3751 -22.3751 -22.4211 -22.4211 -22.4669 -22.4669 -22.5126 -22.5126 -22.5581 -22.5581 -22.6035 -22.6035 -22.6488 -22.6488 -22.6939 -22.6939 -22.7389 -22.7389 -22.7837 -22.7837 -22.8284 -22.8284