# vtk DataFile Version 3.0
#This file was generated by the deal.II library on 2020/9/6 at 2:50:01
ASCII
DATASET UNSTRUCTURED_GRID

POINTS 4096 double
1.5 0 0
1.59692 0 0
1.59692 0 0
1.69385 0 0
1.69385 0 0
1.79077 0 0
1.79077 0 0
1.8877 0 0
1.8877 0 0
1.98462 0 0
1.98462 0 0
2.08154 0 0
2.08154 0 0
2.17847 0 0
2.17847 0 0
2.27539 0 0
2.27539 0 0
2.37231 0 0
2.37231 0 0
2.46924 0 0
2.46924 0 0
2.56616 0 0
2.56616 0 0
2.66309 0 0
2.66309 0 0
2.76001 0 0
2.76001 0 0
2.85693 0 0
2.85693 0 0
2.95386 0 0
2.95386 0 0
3.05078 0 0
3.05078 0 0
3.14771 0 0
3.14771 0 0
3.24463 0 0
3.24463 0 0
3.34155 0 0
3.34155 0 0
3.43848 0 0
3.43848 0 0
3.5354 0 0
3.5354 0 0
3.63232 0 0
3.63232 0 0
3.72925 0 0
3.72925 0 0
3.82617 0 0
3.82617 0 0
3.9231 0 0
3.9231 0 0
4.02002 0 0
4.02002 0 0
4.11694 0 0
4.11694 0 0
4.21387 0 0
4.21387 0 0
4.31079 0 0
4.31079 0 0
4.40771 0 0
4.40771 0 0
4.50464 0 0
4.50464 0 0
4.60156 0 0
4.60156 0 0
4.69849 0 0
4.69849 0 0
4.79541 0 0
4.79541 0 0
4.89233 0 0
4.89233 0 0
4.98926 0 0
4.98926 0 0
5.08618 0 0
5.08618 0 0
5.18311 0 0
5.18311 0 0
5.28003 0 0
5.28003 0 0
5.37695 0 0
5.37695 0 0
5.47388 0 0
5.47388 0 0
5.5708 0 0
5.5708 0 0
5.66772 0 0
5.66772 0 0
5.76465 0 0
5.76465 0 0
5.86157 0 0
5.86157 0 0
5.9585 0 0
5.9585 0 0
6.05542 0 0
6.05542 0 0
6.15234 0 0
6.15234 0 0
6.24927 0 0
6.24927 0 0
6.34619 0 0
6.34619 0 0
6.44312 0 0
6.44312 0 0
6.54004 0 0
6.54004 0 0
6.63696 0 0
6.63696 0 0
6.73389 0 0
6.73389 0 0
6.83081 0 0
6.83081 0 0
6.92773 0 0
6.92773 0 0
7.02466 0 0
7.02466 0 0
7.12158 0 0
7.12158 0 0
7.21851 0 0
7.21851 0 0
7.31543 0 0
7.31543 0 0
7.41235 0 0
7.41235 0 0
7.50928 0 0
7.50928 0 0
7.6062 0 0
7.6062 0 0
7.70312 0 0
7.70312 0 0
7.80005 0 0
7.80005 0 0
7.89697 0 0
7.89697 0 0
7.9939 0 0
7.9939 0 0
8.09082 0 0
8.09082 0 0
8.18774 0 0
8.18774 0 0
8.28467 0 0
8.28467 0 0
8.38159 0 0
8.38159 0 0
8.47852 0 0
8.47852 0 0
8.57544 0 0
8.57544 0 0
8.67236 0 0
8.67236 0 0
8.76929 0 0
8.76929 0 0
8.86621 0 0
8.86621 0 0
8.96313 0 0
8.96313 0 0
9.06006 0 0
9.06006 0 0
9.15698 0 0
9.15698 0 0
9.25391 0 0
9.25391 0 0
9.35083 0 0
9.35083 0 0
9.44775 0 0
9.44775 0 0
9.54468 0 0
9.54468 0 0
9.6416 0 0
9.6416 0 0
9.73853 0 0
9.73853 0 0
9.83545 0 0
9.83545 0 0
9.93237 0 0
9.93237 0 0
10.0293 0 0
10.0293 0 0
10.1262 0 0
10.1262 0 0
10.2231 0 0
10.2231 0 0
10.3201 0 0
10.3201 0 0
10.417 0 0
10.417 0 0
10.5139 0 0
10.5139 0 0
10.6108 0 0
10.6108 0 0
10.7078 0 0
10.7078 0 0
10.8047 0 0
10.8047 0 0
10.9016 0 0
10.9016 0 0
10.9985 0 0
10.9985 0 0
11.0955 0 0
11.0955 0 0
11.1924 0 0
11.1924 0 0
11.2893 0 0
11.2893 0 0
11.3862 0 0
11.3862 0 0
11.4832 0 0
11.4832 0 0
11.5801 0 0
11.5801 0 0
11.677 0 0
11.677 0 0
11.7739 0 0
11.7739 0 0
11.8708 0 0
11.8708 0 0
11.9678 0 0
11.9678 0 0
12.0647 0 0
12.0647 0 0
12.1616 0 0
12.1616 0 0
12.2585 0 0
12.2585 0 0
12.3555 0 0
12.3555 0 0
12.4524 0 0
12.4524 0 0
12.5493 0 0
12.5493 0 0
12.6462 0 0
12.6462 0 0
12.7432 0 0
12.7432 0 0
12.8401 0 0
12.8401 0 0
12.937 0 0
12.937 0 0
13.0339 0 0
13.0339 0 0
13.1309 0 0
13.1309 0 0
13.2278 0 0
13.2278 0 0
13.3247 0 0
13.3247 0 0
13.4216 0 0
13.4216 0 0
13.5186 0 0
13.5186 0 0
13.6155 0 0
13.6155 0 0
13.7124 0 0
13.7124 0 0
13.8093 0 0
13.8093 0 0
13.9062 0 0
13.9062 0 0
14.0032 0 0
14.0032 0 0
14.1001 0 0
14.1001 0 0
14.197 0 0
14.197 0 0
14.2939 0 0
14.2939 0 0
14.3909 0 0
14.3909 0 0
14.4878 0 0
14.4878 0 0
14.5847 0 0
14.5847 0 0
14.6816 0 0
14.6816 0 0
14.7786 0 0
14.7786 0 0
14.8755 0 0
14.8755 0 0
14.9724 0 0
14.9724 0 0
15.0693 0 0
15.0693 0 0
15.1663 0 0
15.1663 0 0
15.2632 0 0
15.2632 0 0
15.3601 0 0
15.3601 0 0
15.457 0 0
15.457 0 0
15.554 0 0
15.554 0 0
15.6509 0 0
15.6509 0 0
15.7478 0 0
15.7478 0 0
15.8447 0 0
15.8447 0 0
15.9417 0 0
15.9417 0 0
16.0386 0 0
16.0386 0 0
16.1355 0 0
16.1355 0 0
16.2324 0 0
16.2324 0 0
16.3293 0 0
16.3293 0 0
16.4263 0 0
16.4263 0 0
16.5232 0 0
16.5232 0 0
16.6201 0 0
16.6201 0 0
16.717 0 0
16.717 0 0
16.814 0 0
16.814 0 0
16.9109 0 0
16.9109 0 0
17.0078 0 0
17.0078 0 0
17.1047 0 0
17.1047 0 0
17.2017 0 0
17.2017 0 0
17.2986 0 0
17.2986 0 0
17.3955 0 0
17.3955 0 0
17.4924 0 0
17.4924 0 0
17.5894 0 0
17.5894 0 0
17.6863 0 0
17.6863 0 0
17.7832 0 0
17.7832 0 0
17.8801 0 0
17.8801 0 0
17.9771 0 0
17.9771 0 0
18.074 0 0
18.074 0 0
18.1709 0 0
18.1709 0 0
18.2678 0 0
18.2678 0 0
18.3647 0 0
18.3647 0 0
18.4617 0 0
18.4617 0 0
18.5586 0 0
18.5586 0 0
18.6555 0 0
18.6555 0 0
18.7524 0 0
18.7524 0 0
18.8494 0 0
18.8494 0 0
18.9463 0 0
18.9463 0 0
19.0432 0 0
19.0432 0 0
19.1401 0 0
19.1401 0 0
19.2371 0 0
19.2371 0 0
19.334 0 0
19.334 0 0
19.4309 0 0
19.4309 0 0
19.5278 0 0
19.5278 0 0
19.6248 0 0
19.6248 0 0
19.7217 0 0
19.7217 0 0
19.8186 0 0
19.8186 0 0
19.9155 0 0
19.9155 0 0
20.0125 0 0
20.0125 0 0
20.1094 0 0
20.1094 0 0
20.2063 0 0
20.2063 0 0
20.3032 0 0
20.3032 0 0
20.4001 0 0
20.4001 0 0
20.4971 0 0
20.4971 0 0
20.594 0 0
20.594 0 0
20.6909 0 0
20.6909 0 0
20.7878 0 0
20.7878 0 0
20.8848 0 0
20.8848 0 0
20.9817 0 0
20.9817 0 0
21.0786 0 0
21.0786 0 0
21.1755 0 0
21.1755 0 0
21.2725 0 0
21.2725 0 0
21.3694 0 0
21.3694 0 0
21.4663 0 0
21.4663 0 0
21.5632 0 0
21.5632 0 0
21.6602 0 0
21.6602 0 0
21.7571 0 0
21.7571 0 0
21.854 0 0
21.854 0 0
21.9509 0 0
21.9509 0 0
22.0479 0 0
22.0479 0 0
22.1448 0 0
22.1448 0 0
22.2417 0 0
22.2417 0 0
22.3386 0 0
22.3386 0 0
22.4355 0 0
22.4355 0 0
22.5325 0 0
22.5325 0 0
22.6294 0 0
22.6294 0 0
22.7263 0 0
22.7263 0 0
22.8232 0 0
22.8232 0 0
22.9202 0 0
22.9202 0 0
23.0171 0 0
23.0171 0 0
23.114 0 0
23.114 0 0
23.2109 0 0
23.2109 0 0
23.3079 0 0
23.3079 0 0
23.4048 0 0
23.4048 0 0
23.5017 0 0
23.5017 0 0
23.5986 0 0
23.5986 0 0
23.6956 0 0
23.6956 0 0
23.7925 0 0
23.7925 0 0
23.8894 0 0
23.8894 0 0
23.9863 0 0
23.9863 0 0
24.0833 0 0
24.0833 0 0
24.1802 0 0
24.1802 0 0
24.2771 0 0
24.2771 0 0
24.374 0 0
24.374 0 0
24.4709 0 0
24.4709 0 0
24.5679 0 0
24.5679 0 0
24.6648 0 0
24.6648 0 0
24.7617 0 0
24.7617 0 0
24.8586 0 0
24.8586 0 0
24.9556 0 0
24.9556 0 0
25.0525 0 0
25.0525 0 0
25.1494 0 0
25.1494 0 0
25.2463 0 0
25.2463 0 0
25.3433 0 0
25.3433 0 0
25.4402 0 0
25.4402 0 0
25.5371 0 0
25.5371 0 0
25.634 0 0
25.634 0 0
25.731 0 0
25.731 0 0
25.8279 0 0
25.8279 0 0
25.9248 0 0
25.9248 0 0
26.0217 0 0
26.0217 0 0
26.1187 0 0
26.1187 0 0
26.2156 0 0
26.2156 0 0
26.3125 0 0
26.3125 0 0
26.4094 0 0
26.4094 0 0
26.5063 0 0
26.5063 0 0
26.6033 0 0
26.6033 0 0
26.7002 0 0
26.7002 0 0
26.7971 0 0
26.7971 0 0
26.894 0 0
26.894 0 0
26.991 0 0
26.991 0 0
27.0879 0 0
27.0879 0 0
27.1848 0 0
27.1848 0 0
27.2817 0 0
27.2817 0 0
27.3787 0 0
27.3787 0 0
27.4756 0 0
27.4756 0 0
27.5725 0 0
27.5725 0 0
27.6694 0 0
27.6694 0 0
27.7664 0 0
27.7664 0 0
27.8633 0 0
27.8633 0 0
27.9602 0 0
27.9602 0 0
28.0571 0 0
28.0571 0 0
28.1541 0 0
28.1541 0 0
28.251 0 0
28.251 0 0
28.3479 0 0
28.3479 0 0
28.4448 0 0
28.4448 0 0
28.5417 0 0
28.5417 0 0
28.6387 0 0
28.6387 0 0
28.7356 0 0
28.7356 0 0
28.8325 0 0
28.8325 0 0
28.9294 0 0
28.9294 0 0
29.0264 0 0
29.0264 0 0
29.1233 0 0
29.1233 0 0
29.2202 0 0
29.2202 0 0
29.3171 0 0
29.3171 0 0
29.4141 0 0
29.4141 0 0
29.511 0 0
29.511 0 0
29.6079 0 0
29.6079 0 0
29.7048 0 0
29.7048 0 0
29.8018 0 0
29.8018 0 0
29.8987 0 0
29.8987 0 0
29.9956 0 0
29.9956 0 0
30.0925 0 0
30.0925 0 0
30.1895 0 0
30.1895 0 0
30.2864 0 0
30.2864 0 0
30.3833 0 0
30.3833 0 0
30.4802 0 0
30.4802 0 0
30.5771 0 0
30.5771 0 0
30.6741 0 0
30.6741 0 0
30.771 0 0
30.771 0 0
30.8679 0 0
30.8679 0 0
30.9648 0 0
30.9648 0 0
31.0618 0 0
31.0618 0 0
31.1587 0 0
31.1587 0 0
31.2556 0 0
31.2556 0 0
31.3525 0 0
31.3525 0 0
31.4495 0 0
31.4495 0 0
31.5464 0 0
31.5464 0 0
31.6433 0 0
31.6433 0 0
31.7402 0 0
31.7402 0 0
31.8372 0 0
31.8372 0 0
31.9341 0 0
31.9341 0 0
32.031 0 0
32.031 0 0
32.1279 0 0
32.1279 0 0
32.2249 0 0
32.2249 0 0
32.3218 0 0
32.3218 0 0
32.4187 0 0
32.4187 0 0
32.5156 0 0
32.5156 0 0
32.6125 0 0
32.6125 0 0
32.7095 0 0
32.7095 0 0
32.8064 0 0
32.8064 0 0
32.9033 0 0
32.9033 0 0
33.0002 0 0
33.0002 0 0
33.0972 0 0
33.0972 0 0
33.1941 0 0
33.1941 0 0
33.291 0 0
33.291 0 0
33.3879 0 0
33.3879 0 0
33.4849 0 0
33.4849 0 0
33.5818 0 0
33.5818 0 0
33.6787 0 0
33.6787 0 0
33.7756 0 0
33.7756 0 0
33.8726 0 0
33.8726 0 0
33.9695 0 0
33.9695 0 0
34.0664 0 0
34.0664 0 0
34.1633 0 0
34.1633 0 0
34.2603 0 0
34.2603 0 0
34.3572 0 0
34.3572 0 0
34.4541 0 0
34.4541 0 0
34.551 0 0
34.551 0 0
34.6479 0 0
34.6479 0 0
34.7449 0 0
34.7449 0 0
34.8418 0 0
34.8418 0 0
34.9387 0 0
34.9387 0 0
35.0356 0 0
35.0356 0 0
35.1326 0 0
35.1326 0 0
35.2295 0 0
35.2295 0 0
35.3264 0 0
35.3264 0 0
35.4233 0 0
35.4233 0 0
35.5203 0 0
35.5203 0 0
35.6172 0 0
35.6172 0 0
35.7141 0 0
35.7141 0 0
35.811 0 0
35.811 0 0
35.908 0 0
35.908 0 0
36.0049 0 0
36.0049 0 0
36.1018 0 0
36.1018 0 0
36.1987 0 0
36.1987 0 0
36.2957 0 0
36.2957 0 0
36.3926 0 0
36.3926 0 0
36.4895 0 0
36.4895 0 0
36.5864 0 0
36.5864 0 0
36.6833 0 0
36.6833 0 0
36.7803 0 0
36.7803 0 0
36.8772 0 0
36.8772 0 0
36.9741 0 0
36.9741 0 0
37.071 0 0
37.071 0 0
37.168 0 0
37.168 0 0
37.2649 0 0
37.2649 0 0
37.3618 0 0
37.3618 0 0
37.4587 0 0
37.4587 0 0
37.5557 0 0
37.5557 0 0
37.6526 0 0
37.6526 0 0
37.7495 0 0
37.7495 0 0
37.8464 0 0
37.8464 0 0
37.9434 0 0
37.9434 0 0
38.0403 0 0
38.0403 0 0
38.1372 0 0
38.1372 0 0
38.2341 0 0
38.2341 0 0
38.3311 0 0
38.3311 0 0
38.428 0 0
38.428 0 0
38.5249 0 0
38.5249 0 0
38.6218 0 0
38.6218 0 0
38.7188 0 0
38.7188 0 0
38.8157 0 0
38.8157 0 0
38.9126 0 0
38.9126 0 0
39.0095 0 0
39.0095 0 0
39.1064 0 0
39.1064 0 0
39.2034 0 0
39.2034 0 0
39.3003 0 0
39.3003 0 0
39.3972 0 0
39.3972 0 0
39.4941 0 0
39.4941 0 0
39.5911 0 0
39.5911 0 0
39.688 0 0
39.688 0 0
39.7849 0 0
39.7849 0 0
39.8818 0 0
39.8818 0 0
39.9788 0 0
39.9788 0 0
40.0757 0 0
40.0757 0 0
40.1726 0 0
40.1726 0 0
40.2695 0 0
40.2695 0 0
40.3665 0 0
40.3665 0 0
40.4634 0 0
40.4634 0 0
40.5603 0 0
40.5603 0 0
40.6572 0 0
40.6572 0 0
40.7542 0 0
40.7542 0 0
40.8511 0 0
40.8511 0 0
40.948 0 0
40.948 0 0
41.0449 0 0
41.0449 0 0
41.1418 0 0
41.1418 0 0
41.2388 0 0
41.2388 0 0
41.3357 0 0
41.3357 0 0
41.4326 0 0
41.4326 0 0
41.5295 0 0
41.5295 0 0
[...]
POINT_DATA 4096
SCALARS solution_0 double 1
LOOKUP_TABLE default
359.564 352.095 352.095 345.791 345.791 340.417 340.417 335.79 335.79 331.772 331.772 328.252 328.252 325.141 325.141 322.371 322.371 319.882 319.882 317.63 317.63 315.577 315.577 313.69 313.69 311.943 311.943 310.316 310.316 308.788 308.788 307.346 307.346 305.975 305.975 304.665 304.665 303.407 303.407 302.191 302.191 301.011 301.011 299.861 299.861 298.737 298.737 297.633 297.633 296.546 296.546 295.472 295.472 294.41 294.41 293.355 293.355 292.307 292.307 291.263 291.263 290.222 290.222 289.183 289.183 288.144 288.144 287.105 287.105 286.064 286.064 285.022 285.022 283.977 283.977 282.928 282.928 281.877 281.877 280.821 280.821 279.762 279.762 278.698 278.698 277.63 277.63 276.558 276.558 275.481 275.481 274.4 274.4 273.314 273.314 272.224 272.224 271.129 271.129 270.03 270.03 268.927 268.927 267.82 267.82 266.709 266.709 265.594 265.594 264.476 264.476 263.354 263.354 262.229 262.229 261.1 261.1 259.968 259.968 258.834 258.834 257.697 257.697 256.557 256.557 255.416 255.416 254.272 254.272 253.126 253.126 251.978 251.978 250.829 250.829 249.678 249.678 248.526 248.526 247.373 247.373 246.22 246.22 245.065 245.065 243.91 243.91 242.754 242.754 241.599 241.599 240.443 240.443 239.287 239.287 238.132 238.132 236.976 236.976 235.822 235.822 234.668 234.668 233.515 233.515 232.363 232.363 231.212 231.212 230.062 230.062 228.913 228.913 227.766 227.766 226.621 226.621 225.477 225.477 224.335 224.335 223.195 223.195 222.057 222.057 220.921 220.921 219.787 219.787 218.656 218.656 217.527 217.527 216.401 216.401 215.277 215.277 214.156 214.156 213.038 213.038 211.923 211.923 210.81 210.81 209.701 209.701 208.595 208.595 207.492 207.492 206.392 206.392 205.295 205.295 204.202 204.202 203.113 203.113 202.027 202.027 200.944 200.944 199.865 199.865 198.79 198.79 197.718 197.718 196.65 196.65 195.586 195.586 194.526 194.526 193.47 193.47 192.418 192.418 191.37 191.37 190.326 190.326 189.285 189.285 188.249 188.249 187.218 187.218 186.19 186.19 185.167 185.167 184.147 184.147 183.132 183.132 182.122 182.122 181.115 181.115 180.113 180.113 179.116 179.116 178.122 178.122 177.133 177.133 176.149 176.149 175.169 175.169 174.193 174.193 173.222 173.222 172.256 172.256 171.293 171.293 170.336 170.336 169.383 169.383 168.434 168.434 167.49 167.49 166.55 166.55 165.615 165.615 164.685 164.685 163.759 163.759 162.838 162.838 161.921 161.921 161.009 161.009 160.101 160.101 159.198 159.198 158.3 158.3 157.406 157.406 156.516 156.516 155.632 155.632 154.751 154.751 153.876 153.876 153.005 153.005 152.138 152.138 151.276 151.276 150.419 150.419 149.566 149.566 148.717 148.717 147.874 147.874 147.034 147.034 146.199 146.199 145.369 145.369 144.543 144.543 143.722 143.722 142.905 142.905 142.092 142.092 141.284 141.284 140.481 140.481 139.681 139.681 138.887 138.887 138.096 138.096 137.31 137.31 136.529 136.529 135.752 135.752 134.979 134.979 134.21 134.21 133.446 133.446 132.686 132.686 131.93 131.93 131.179 131.179 130.432 130.432 129.689 129.689 128.95 128.95 128.216 128.216 127.486 127.486 126.76 126.76 126.038 126.038 125.32 125.32 124.607 124.607 123.897 123.897 123.192 123.192 122.49 122.49 121.793 121.793 121.1 121.1 120.411 120.411 119.726 119.726 119.045 119.045 118.367 118.367 117.694 117.694 117.025 117.025 116.36 116.36 115.698 115.698 115.041 115.041 114.387 114.387 113.737 113.737 113.091 113.091 112.449 112.449 111.81 111.81 111.176 111.176 110.545 110.545 109.918 109.918 109.294 109.294 108.674 108.674 108.058 108.058 107.446 107.446 106.837 106.837 106.232 106.232 105.63 105.63 105.032 105.032 104.438 104.438 103.847 103.847 103.26 103.26 102.676 102.676 102.096 102.096 101.519 101.519 100.945 100.945 100.375 100.375 99.8089 99.8089 99.2458 99.2458 98.6861 98.6861 98.1298 98.1298 97.5768 97.5768 97.0271 97.0271 96.4808 96.4808 95.9377 95.9377 95.398 95.398 94.8615 94.8615 94.3282 94.3282 93.7982 93.7982 93.2714 93.2714 92.7477 92.7477 92.2272 92.2272 91.7098 91.7098 91.1956 91.1956 90.6843 90.6843 90.1762 90.1762 89.671 89.671 89.1689 89.1689 88.6697 88.6697 88.1734 88.1734 87.68 87.68 87.1895 87.1895 86.7018 86.7018 86.2169 86.2169 85.7348 85.7348 85.2554 85.2554 84.7788 84.7788 84.3048 84.3048 83.8335 83.8335 83.3649 83.3649 82.8989 82.8989 82.4354 82.4354 81.9746 81.9746 81.5164 81.5164 81.0607 81.0607 80.6076 80.6076 80.157 80.157 79.7089 79.7089 79.2634 79.2634 78.8204 78.8204 78.3799 78.3799 77.942 77.942 77.5065 77.5065 77.0735 77.0735 76.643 76.643 76.2149 76.2149 75.7892 75.7892 75.3658 75.3658 74.9446 74.9446 74.5257 74.5257 74.1087 74.1087 73.6936 73.6936 73.2802 73.2802 72.8682 72.8682 72.4575 72.4575 72.0476 72.0476 71.6383 71.6383 71.2292 71.2292 70.82 70.82 70.4101 70.4101 69.9994 69.9994 69.5874 69.5874 69.1739 69.1739 68.7586 68.7586 68.3417 68.3417 67.923 67.923 67.503 67.503 67.082 67.082 66.6606 66.6606 66.2398 66.2398 65.8204 65.8204 65.4036 65.4036 64.9906 64.9906 64.5827 64.5827 64.1812 64.1812 63.7874 63.7874 63.4023 63.4023 63.027 63.027 62.6622 62.6622 62.3086 62.3086 61.9666 61.9666 61.6366 61.6366 61.3185 61.3185 61.0125 61.0125 60.7186 60.7186 60.4368 60.4368 60.167 60.167 59.9093 59.9093 59.6639 59.6639 59.4309 59.4309 59.2103 59.2103 59.0025 59.0025 58.8074 58.8074 58.6251 58.6251 58.4553 58.4553 58.2976 58.2976 58.1515 58.1515 58.0162 58.0162 57.8905 57.8905 57.7732 57.7732 57.6627 57.6627 57.5573 57.5573 57.455 57.455 57.3537 57.3537 57.2511 57.2511 57.1449 57.1449 57.0327 57.0327 56.9121 56.9121 56.7806 56.7806 56.6361 56.6361 56.4763 56.4763 56.2994 56.2994 56.1036 56.1036 55.8877 55.8877 55.6505 55.6505 55.3913 55.3913 55.1099 55.1099 54.8064 54.8064 54.4812 54.4812 54.1353 54.1353 53.77 53.77 53.3867 53.3867 52.9873 52.9873 52.574 52.574 52.1492 52.1492 51.7151 51.7151 51.2743 51.2743 50.8294 50.8294 50.3828 50.3828 49.9368 49.9368 49.4938 49.4938 49.0556 49.0556 48.6243 48.6243 48.2012 48.2012 47.7878 47.7878 47.385 47.385 46.9937 46.9937 46.6143 46.6143 46.2472 46.2472 45.8924 45.8924 45.5498 45.5498 45.219 45.219 44.8997 44.8997 44.5912 44.5912 44.2929 44.2929 44.0041 44.0041 43.724 43.724 43.452 43.452 43.1873 43.1873 42.9292 42.9292 42.677 42.677 42.4301 42.4301 42.1879 42.1879 41.9499 41.9499 41.7156 41.7156 41.4846 41.4846 41.2566 41.2566 41.0312 41.0312 40.8082 40.8082 40.5873 40.5873 40.3684 40.3684 40.1513 40.1513 39.9358 39.9358 39.722 39.722 39.5096 39.5096 39.2987 39.2987 39.0891 39.0891 38.8809 38.8809 38.6739 38.6739 38.4682 38.4682 38.2637 38.2637 38.0605 38.0605 37.8585 37.8585 37.6576 37.6576 37.4579 37.4579 37.2594 37.2594 37.062 37.062 36.8658 36.8658 36.6707 36.6707 36.4767 36.4767 36.2838 36.2838 36.092 36.092 35.9014 35.9014 35.7118 35.7118 35.5233 35.5233 35.3358 35.3358 35.1495 35.1495 34.9642 34.9642 34.7799 34.7799 34.5967 34.5967 34.4145 34.4145 34.2333 34.2333 34.0532 34.0532 33.874 33.874 33.6959 33.6959 33.5188 33.5188 33.3426 33.3426 33.1675 33.1675 32.9933 32.9933 32.8201 32.8201 32.6478 32.6478 32.4765 32.4765 32.3061 32.3061 32.1367 32.1367 31.9682 31.9682 31.8007 31.8007 31.6341 31.6341 31.4683 31.4683 31.3035 31.3035 31.1396 31.1396 30.9766 30.9766 30.8144 30.8144 30.6532 30.6532 30.4928 30.4928 30.3333 30.3333 30.1747 30.1747 30.0169 30.0169 29.8599 29.8599 29.7038 29.7038 29.5486 29.5486 29.3942 29.3942 29.2406 29.2406 29.0878 29.0878 28.9359 28.9359 28.7847 28.7847 28.6344 28.6344 28.4848 28.4848 28.3361 28.3361 28.1881 28.1881 28.041 28.041 27.8946 27.8946 27.7489 27.7489 27.6041 27.6041 27.46 27.46 27.3166 27.3166 27.1741 27.1741 27.0322 27.0322 26.8911 26.8911 26.7507 26.7507 26.6111 26.6111 26.4722 26.4722 26.334 26.334 26.1965 26.1965 26.0598 26.0598 25.9237 25.9237 25.7884 25.7884 25.6537 25.6537 25.5197 25.5197 25.3865 25.3865 25.2539 25.2539 25.1219 25.1219 24.9907 24.9907 24.8601 24.8601 24.7302 24.7302 24.601 24.601 24.4724 24.4724 24.3445 24.3445 24.2172 24.2172 24.0905 24.0905 23.9645 23.9645 23.8391 23.8391 23.7144 23.7144 23.5903 23.5903 23.4668 23.4668 23.3439 23.3439 23.2217 23.2217 23.1 23.1 22.979 22.979 22.8585 22.8585 22.7387 22.7387 22.6195 22.6195 22.5008 22.5008 22.3827 22.3827 22.2653 22.2653 22.1484 22.1484 22.032 22.032 21.9163 21.9163 21.8011 21.8011 21.6865 21.6865 21.5724 21.5724 21.4589 21.4589 21.346 21.346 21.2336 21.2336 21.1218 21.1218 21.0105 21.0105 20.8997 20.8997 20.7895 20.7895 20.6798 20.6798 20.5707 20.5707 20.462 20.462 20.3539 20.3539 20.2463 20.2463 20.1393 20.1393 20.0327 20.0327 19.9267 19.9267 19.8211 19.8211 19.7161 19.7161 19.6116 19.6116 19.5076 19.5076 19.404 19.404 19.301 19.301 19.1984 19.1984 19.0964 19.0964 18.9948 18.9948 18.8937 18.8937 18.7931 18.7931 18.6929 18.6929 18.5933 18.5933 18.4941 18.4941 18.3953 18.3953 18.2971 18.2971 18.1992 18.1992 18.1019 18.1019 18.005 18.005 17.9085 17.9085 17.8125 17.8125 17.717 17.717 17.6219 17.6219 17.5272 17.5272 17.433 17.433 17.3392 17.3392 17.2458 17.2458 17.1529 17.1529 17.0604 17.0604 16.9683 16.9683 16.8767 16.8767 16.7855 16.7855 16.6947 16.6947 16.6043 16.6043 16.5143 16.5143 16.4247 16.4247 16.3356 16.3356 16.2468 16.2468 16.1585 16.1585 16.0705 16.0705 15.983 15.983 15.8958 15.8958 15.8091 15.8091 15.7227 15.7227 15.6367 15.6367 15.5511 15.5511 15.466 15.466 15.3811 15.3811 15.2967 15.2967 15.2127 15.2127 15.129 15.129 15.0457 15.0457 14.9627 14.9627 14.8802 14.8802 14.798 14.798 14.7162 14.7162 14.6347 14.6347 14.5536 14.5536 14.4729 14.4729 14.3925 14.3925 14.3125 14.3125 14.2328 14.2328 14.1535 14.1535 14.0745 14.0745 13.9959 13.9959 13.9176 13.9176 13.8397 13.8397 13.7621 13.7621 13.6849 13.6849 13.608 13.608 13.5314 13.5314 13.4552 13.4552 13.3793 13.3793 13.3037 13.3037 13.2285 13.2285 13.1535 13.1535 13.079 13.079 13.0047 13.0047 12.9307 12.9307 12.8571 12.8571 12.7838 12.7838 12.7108 12.7108 12.6382 12.6382 12.5658 12.5658 12.4938 12.4938 12.422 12.422 12.3506 12.3506 12.2795 12.2795 12.2087 12.2087 12.1381 12.1381 12.0679 12.0679 11.998 11.998 11.9284 11.9284 11.8591 11.8591 11.7901 11.7901 11.7213 11.7213 11.6529 11.6529 11.5847 11.5847 11.5169 11.5169 11.4493 11.4493 11.382 11.382 11.315 11.315 11.2483 11.2483 11.1819 11.1819 11.1157 11.1157 11.0498 11.0498 10.9842 10.9842 10.9189 10.9189 10.8539 10.8539 10.7891 10.7891 10.7246 10.7246 10.6603 10.6603 10.5963 10.5963 10.5326 10.5326 10.4692 10.4692 10.406 10.406 10.3431 10.3431 10.2805 10.2805 10.2181 10.2181 10.1559 10.1559 10.0941 10.0941 10.0324 10.0324 9.97107 9.97107 9.90995 9.90995 9.84909 9.84909 9.78848 9.78848 9.72812 9.72812 9.668 9.668 9.60814 9.60814 9.54851 9.54851 9.48914 9.48914 9.43 9.43 9.37111 9.37111 9.31245 9.31245 9.25404 9.25404 9.19586 9.19586 9.13793 9.13793 9.08022 9.08022 9.02275 9.02275 8.96552 8.96552 8.90851 8.90851 8.85174 8.85174 8.7952 8.7952 8.73888 8.73888 8.68279 8.68279 8.62693 8.62693 8.57129 8.57129 8.51588 8.51588 8.46069 8.46069 8.40572 8.40572 8.35098 8.35098 8.29645 8.29645 8.24214 8.24214 8.18805 8.18805 8.13417 8.13417 8.08051 8.08051 8.02706 8.02706 7.97383 7.97383 7.92081 7.92081 7.86799 7.86799 7.81539 7.81539 7.763 7.763 7.71082 7.71082 7.65884 7.65884 7.60707 7.60707 7.5555 7.5555 7.50413 7.50413 7.45297 7.45297 7.40201 7.40201 7.35126 7.35126 7.3007 7.3007 7.25034 7.25034 7.20018 7.20018 7.15021 7.15021 7.10044 7.10044 7.05087 7.05087 7.00149 7.00149 6.9523 6.9523 6.9033 6.9033 6.8545 6.8545 6.80589 6.80589 6.75746 6.75746 6.70923 6.70923 6.66118 6.66118 6.61332 6.61332 6.56564 6.56564 6.51815 6.51815 6.47084 6.47084 6.42372 6.42372 6.37678 6.37678 6.33002 6.33002 6.28344 6.28344 6.23704 6.23704 6.19082 6.19082 6.14477 6.14477 6.09891 6.09891 6.05322 6.05322 6.0077 6.0077 5.96236 5.96236 5.91719 5.91719 5.8722 5.8722 5.82738 5.82738 5.78273 5.78273 5.73825 5.73825 5.69394 5.69394 5.6498 5.6498 5.60583 5.60583 5.56202 5.56202 5.51839 5.51839 5.47491 5.47491 5.4316 5.4316 5.38846 5.38846 5.34548 5.34548 5.30266 5.30266 5.26001 5.26001 5.21751 5.21751 5.17518 5.17518 5.13301 5.13301 5.09099 5.09099 5.04914 5.04914 5.00744 5.00744 4.9659 4.9659 4.92451 4.92451 4.88328 4.88328 4.8422 4.8422 4.80128 4.80128 4.76051 4.76051 4.7199 4.7199 4.67943 4.67943 4.63912 4.63912 4.59895 4.59895 4.55894 4.55894 4.51908 4.51908 4.47936 4.47936 4.4398 4.4398 4.40037 4.40037 4.3611 4.3611 4.32197 4.32197 4.28299 4.28299 4.24415 4.24415 4.20545 4.20545 4.1669 4.1669 4.12849 4.12849 4.09023 4.09023 4.0521 4.0521 4.01411 4.01411 3.97627 3.97627 3.93856 3.93856 3.90099 3.90099 3.86356 3.86356 3.82627 3.82627 3.78912 3.78912 3.7521 3.7521 3.71521 3.71521 3.67847 3.67847 3.64185 3.64185 3.60537 3.60537 3.56903 3.56903 3.53281 3.53281 3.49673 3.49673 3.46078 3.46078 3.42496 3.42496 3.38927 3.38927 3.35371 3.35371 3.31828 3.31828 3.28298 3.28298 3.24781 3.24781 3.21276 3.21276 3.17784 3.17784 3.14305 3.14305 3.10838 3.10838 3.07384 3.07384 3.03942 3.03942 3.00513 3.00513 2.97096 2.97096 2.93692 2.93692 2.90299 2.90299 2.86919 2.86919 2.83551 2.83551 2.80195 2.80195 2.76852 2.76852 2.7352 2.7352 2.702 2.702 2.66892 2.66892 2.63596 2.63596 2.60312 2.60312 2.57039 2.57039 2.53778 2.53778 2.50529 2.50529 2.47291 2.47291 2.44065 2.44065 2.4085 2.4085 2.37647 2.37647 2.34455 2.34455 2.31275 2.31275 2.28106 2.28106 2.24948 2.24948 2.21801 2.21801 2.18666 2.18666 2.15541 2.15541 2.12428 2.12428 2.09326 2.09326 2.06234 2.06234 2.03154 2.03154 2.00084 2.00084 1.97025 1.97025 1.93977 1.93977 1.9094 1.9094 1.87914 1.87914 1.84898 1.84898 1.81892 1.81892 1.78898 1.78898 1.75913 1.75913 1.7294 1.7294 1.69976 1.69976 1.67023 1.67023 1.64081 1.64081 1.61148 1.61148 1.58226 1.58226 1.55314 1.55314 1.52413 1.52413 1.49521 1.49521 1.4664 1.4664 1.43768 1.43768 1.40907 1.40907 1.38055 1.38055 1.35214 1.35214 1.32382 1.32382 1.2956 1.2956 1.26748 1.26748 1.23946 1.23946 1.21153 1.21153 1.18371 1.18371 1.15597 1.15597 1.12834 1.12834 1.1008 1.1008 1.07335 1.07335 1.046 1.046 1.01874 1.01874 0.991579 0.991579 0.96451 0.96451 0.937534 0.937534 0.910652 0.910652 0.883861 0.883861 0.857163 0.857163 0.830557 0.830557 0.804042 0.804042 0.777617 0.777617 0.751284 0.751284 0.725041 0.725041 0.698888 0.698888 0.672824 0.672824 0.64685 0.64685 0.620964 0.620964 0.595167 0.595167 0.569458 0.569458 0.543837 0.543837 0.518303 0.518303 0.492856 0.492856 0.467496 0.467496 0.442222 0.442222 0.417035 0.417035 0.391933 0.391933 0.366916 0.366916 0.341984 0.341984 0.317137 0.317137 0.292375 0.292375 0.267696 0.267696 0.243101 0.243101 0.218589 0.218589 0.19416 0.19416 0.169814 0.169814 0.14555 0.14555 0.121369 0.121369 0.0972687 0.0972687 0.07325 0.07325 0.0493123 0.0493123 0.0254554 0.0254554 0.00167887 0.00167887 -0.0220176 -0.0220176 -0.0456342 -0.0456342 -0.0691714 -0.0691714 -0.0926295 -0.0926295 -0.116009 -0.116009 -0.139309 -0.139309 -0.162532 -0.162532 -0.185676 -0.185676 -0.208743 -0.208743 -0.231733 -0.231733 -0.254646 -0.254646 -0.277481 -0.277481 -0.300241 -0.300241 -0.322924 -0.322924 -0.345532 -0.345532 -0.368064 -0.368064 -0.390521 -0.390521 -0.412903 -0.412903 -0.43521 -0.43521 -0.457443 -0.457443 -0.479602 -0.479602 -0.501687 -0.501687 -0.523698 -0.523698 -0.545636 -0.545636 -0.567502 -0.567502 -0.589294 -0.589294 -0.611015 -0.611015 -0.632663 -0.632663 -0.654239 -0.654239 -0.675744 -0.675744 -0.697178 -0.697178 -0.71854 -0.71854 -0.739832 -0.739832 -0.761054 -0.761054 -0.782205 -0.782205 -0.803286 -0.803286 -0.824298 -0.824298 -0.84524 -0.84524 -0.866113 -0.866113 -0.886917 -0.886917 -0.907653 -0.907653 -0.92832 -0.92832 -0.948919 -0.948919 -0.969451 -0.969451 -0.989915 -0.989915 -1.01031 -1.01031 -1.03064 -1.03064 -1.0509 -1.0509 -1.0711 -1.0711 -1.09123 -1.09123 -1.11129 -1.11129 -1.13129 -1.13129 -1.15122 -1.15122 -1.17109 -1.17109 -1.19089 -1.19089 -1.21063 -1.21063 -1.2303 -1.2303 -1.24991 -1.24991 -1.26946 -1.26946 -1.28894 -1.28894 -1.30835 -1.30835 -1.32771 -1.32771 -1.347 -1.347 -1.36622 -1.36622 -1.38539 -1.38539 -1.40449 -1.40449 -1.42353 -1.42353 -1.44251 -1.44251 -1.46142 -1.46142 -1.48028 -1.48028 -1.49907 -1.49907 -1.51781 -1.51781 -1.53648 -1.53648 -1.55509 -1.55509 -1.57364 -1.57364 -1.59213 -1.59213 -1.61056 -1.61056 -1.62893 -1.62893 -1.64724 -1.64724 -1.66549 -1.66549 -1.68369 -1.68369 -1.70182 -1.70182 -1.7199 -1.7199 -1.73791 -1.73791 -1.75587 -1.75587 -1.77377 -1.77377 -1.79162 -1.79162 -1.8094 -1.8094 -1.82713 -1.82713 -1.8448 -1.8448 -1.86242 -1.86242 -1.87997 -1.87997 -1.89747 -1.89747 -1.91492 -1.91492 -1.93231 -1.93231 -1.94964 -1.94964 -1.96692 -1.96692 -1.98414 -1.98414 -2.0013 -2.0013 -2.01841 -2.01841 -2.03547 -2.03547 -2.05247 -2.05247 -2.06942 -2.06942 -2.08631 -2.08631 -2.10315 -2.10315 -2.11993 -2.11993 -2.13667 -2.13667 -2.15334 -2.15334 -2.16997 -2.16997 -2.18654 -2.18654 -2.20306 -2.20306 -2.21952 -2.21952 -2.23593 -2.23593 -2.25229 -2.25229 -2.2686 -2.2686 -2.28486 -2.28486 -2.30106 -2.30106 -2.31721 -2.31721 -2.33331 -2.33331 -2.34936 -2.34936 -2.36536 -2.36536 -2.38131 -2.38131 -2.39721 -2.39721 -2.41305 -2.41305 -2.42885 -2.42885 -2.4446 -2.4446 -2.46029 -2.46029 -2.47594 -2.47594 -2.49153 -2.49153 -2.50708 -2.50708 -2.52258 -2.52258 -2.53803 -2.53803 -2.55343 -2.55343 -2.56878 -2.56878 -2.58408 -2.58408 -2.59933 -2.59933 -2.61454 -2.61454 -2.6297 -2.6297 -2.64481 -2.64481 -2.65987 -2.65987 -2.67488 -2.67488 -2.68985 -2.68985 -2.70477 -2.70477 -2.71964 -2.71964 -2.73446 -2.73446 -2.74924 -2.74924 -2.76398 -2.76398 -2.77866 -2.77866 -2.7933 -2.7933 -2.80789 -2.80789 -2.82244 -2.82244 -2.83694 -2.83694 -2.8514 -2.8514 -2.86581 -2.86581 -2.88017 -2.88017 -2.89449 -2.89449 -2.90877 -2.90877 -2.923 -2.923 -2.93718 -2.93718 -2.95132 -2.95132 -2.96542 -2.96542 -2.97947 -2.97947 -2.99348 -2.99348 -3.00744 -3.00744 -3.02136 -3.02136 -3.03524 -3.03524 -3.04907 -3.04907 -3.06286 -3.06286 -3.07661 -3.07661 -3.09031 -3.09031 -3.10397 -3.10397 -3.11759 -3.11759 -3.13117 -3.13117 -3.1447 -3.1447 -3.15819 -3.15819 -3.17164 -3.17164 -3.18505 -3.18505 -3.19841 -3.19841 -3.21174 -3.21174 -3.22502 -3.22502 -3.23826 -3.23826 -3.25146 -3.25146 -3.26461 -3.26461 -3.27773 -3.27773 -3.29081 -3.29081 -3.30384 -3.30384 -3.31683 -3.31683 -3.32979 -3.32979 -3.3427 -3.3427 -3.35558 -3.35558 -3.36841 -3.36841 -3.3812 -3.3812 -3.39396 -3.39396 -3.40667 -3.40667 -3.41934 -3.41934 -3.43198 -3.43198 -3.44458 -3.44458 -3.45713 -3.45713 -3.46965 -3.46965 -3.48213 -3.48213 -3.49457 -3.49457 -3.50697 -3.50697 -3.51933 -3.51933 -3.53166 -3.53166 -3.54395 -3.54395 -3.5562 -3.5562 -3.56841 -3.56841 -3.58058 -3.58058 -3.59271 -3.59271 -3.60481 -3.60481 -3.61687 -3.61687 -3.6289 -3.6289 -3.64088 -3.64088 -3.65283 -3.65283 -3.66474 -3.66474 -3.67662 -3.67662 -3.68845 -3.68845 -3.70026 -3.70026 -3.71202 -3.71202 -3.72375 -3.72375 -3.73544 -3.73544 -3.7471 -3.7471 -3.75872 -3.75872 -3.7703 -3.7703 -3.78185 -3.78185 -3.79337 -3.79337 -3.80485 -3.80485 -3.81629 -3.81629 -3.8277 -3.8277 -3.83907 -3.83907 -3.8504 -3.8504 -3.86171 -3.86171 -3.87297 -3.87297 -3.88421 -3.88421 -3.89541 -3.89541 -3.90657 -3.90657 -3.9177 -3.9177 -3.92879 -3.92879 -3.93985 -3.93985 -3.95088 -3.95088 -3.96187 -3.96187 -3.97283 -3.97283 -3.98376 -3.98376 -3.99465 -3.99465 -4.00551 -4.00551 -4.01634 -4.01634 -4.02713 -4.02713 -4.03789 -4.03789 -4.04861 -4.04861 -4.05931 -4.05931 -4.06997 -4.06997 -4.08059 -4.08059 -4.09119 -4.09119 -4.10175 -4.10175 -4.11228 -4.11228 -4.12278 -4.12278 -4.13325 -4.13325 -4.14368 -4.14368 -4.15408 -4.15408 -4.16445 -4.16445 -4.17479 -4.17479 -4.1851 -4.1851 -4.19537 -4.19537 -4.20561 -4.20561 -4.21583 -4.21583 -4.22601 -4.22601 -4.23616 -4.23616 -4.24627 -4.24627 -4.25636 -4.25636 -4.26642 -4.26642 -4.27645 -4.27645 -4.28644 -4.28644 -4.29641 -4.29641 -4.30634 -4.30634 -4.31625 -4.31625 -4.32612 -4.32612 -4.33596 -4.33596 -4.34578 -4.34578 -4.35556 -4.35556 -4.36531 -4.36531 -4.37504 -4.37504 -4.38473 -4.38473 -4.3944 -4.3944 -4.40403 -4.40403 -4.41364 -4.41364 -4.42322 -4.42322 -4.43276 -4.43276 -4.44228 -4.44228 -4.45177 -4.45177 -4.46123 -4.46123 -4.47066 -4.47066 -4.48007 -4.48007 -4.48944 -4.48944 -4.49879 -4.49879 -4.5081 -4.5081 -4.51739 -4.51739 -4.52665 -4.52665 -4.53588 -4.53588 -4.54509 -4.54509 -4.55426 -4.55426 -4.56341 -4.56341 -4.57253 -4.57253 -4.58162 -4.58162 -4.59069 -4.59069 -4.59973 -4.59973 -4.