# vtk DataFile Version 3.0
#This file was generated by the deal.II library on 2020/9/6 at 2:50:12
ASCII
DATASET UNSTRUCTURED_GRID

POINTS 4096 double
1.5 0 0
1.59692 0 0
1.59692 0 0
1.69385 0 0
1.69385 0 0
1.79077 0 0
1.79077 0 0
1.8877 0 0
1.8877 0 0
1.98462 0 0
1.98462 0 0
2.08154 0 0
2.08154 0 0
2.17847 0 0
2.17847 0 0
2.27539 0 0
2.27539 0 0
2.37231 0 0
2.37231 0 0
2.46924 0 0
2.46924 0 0
2.56616 0 0
2.56616 0 0
2.66309 0 0
2.66309 0 0
2.76001 0 0
2.76001 0 0
2.85693 0 0
2.85693 0 0
2.95386 0 0
2.95386 0 0
3.05078 0 0
3.05078 0 0
3.14771 0 0
3.14771 0 0
3.24463 0 0
3.24463 0 0
3.34155 0 0
3.34155 0 0
3.43848 0 0
3.43848 0 0
3.5354 0 0
3.5354 0 0
3.63232 0 0
3.63232 0 0
3.72925 0 0
3.72925 0 0
3.82617 0 0
3.82617 0 0
3.9231 0 0
3.9231 0 0
4.02002 0 0
4.02002 0 0
4.11694 0 0
4.11694 0 0
4.21387 0 0
4.21387 0 0
4.31079 0 0
4.31079 0 0
4.40771 0 0
4.40771 0 0
4.50464 0 0
4.50464 0 0
4.60156 0 0
4.60156 0 0
4.69849 0 0
4.69849 0 0
4.79541 0 0
4.79541 0 0
4.89233 0 0
4.89233 0 0
4.98926 0 0
4.98926 0 0
5.08618 0 0
5.08618 0 0
5.18311 0 0
5.18311 0 0
5.28003 0 0
5.28003 0 0
5.37695 0 0
5.37695 0 0
5.47388 0 0
5.47388 0 0
5.5708 0 0
5.5708 0 0
5.66772 0 0
5.66772 0 0
5.76465 0 0
5.76465 0 0
5.86157 0 0
5.86157 0 0
5.9585 0 0
5.9585 0 0
6.05542 0 0
6.05542 0 0
6.15234 0 0
6.15234 0 0
6.24927 0 0
6.24927 0 0
6.34619 0 0
6.34619 0 0
6.44312 0 0
6.44312 0 0
6.54004 0 0
6.54004 0 0
6.63696 0 0
6.63696 0 0
6.73389 0 0
6.73389 0 0
6.83081 0 0
6.83081 0 0
6.92773 0 0
6.92773 0 0
7.02466 0 0
7.02466 0 0
7.12158 0 0
7.12158 0 0
7.21851 0 0
7.21851 0 0
7.31543 0 0
7.31543 0 0
7.41235 0 0
7.41235 0 0
7.50928 0 0
7.50928 0 0
7.6062 0 0
7.6062 0 0
7.70312 0 0
7.70312 0 0
7.80005 0 0
7.80005 0 0
7.89697 0 0
7.89697 0 0
7.9939 0 0
7.9939 0 0
8.09082 0 0
8.09082 0 0
8.18774 0 0
8.18774 0 0
8.28467 0 0
8.28467 0 0
8.38159 0 0
8.38159 0 0
8.47852 0 0
8.47852 0 0
8.57544 0 0
8.57544 0 0
8.67236 0 0
8.67236 0 0
8.76929 0 0
8.76929 0 0
8.86621 0 0
8.86621 0 0
8.96313 0 0
8.96313 0 0
9.06006 0 0
9.06006 0 0
9.15698 0 0
9.15698 0 0
9.25391 0 0
9.25391 0 0
9.35083 0 0
9.35083 0 0
9.44775 0 0
9.44775 0 0
9.54468 0 0
9.54468 0 0
9.6416 0 0
9.6416 0 0
9.73853 0 0
9.73853 0 0
9.83545 0 0
9.83545 0 0
9.93237 0 0
9.93237 0 0
10.0293 0 0
10.0293 0 0
10.1262 0 0
10.1262 0 0
10.2231 0 0
10.2231 0 0
10.3201 0 0
10.3201 0 0
10.417 0 0
10.417 0 0
10.5139 0 0
10.5139 0 0
10.6108 0 0
10.6108 0 0
10.7078 0 0
10.7078 0 0
10.8047 0 0
10.8047 0 0
10.9016 0 0
10.9016 0 0
10.9985 0 0
10.9985 0 0
11.0955 0 0
11.0955 0 0
11.1924 0 0
11.1924 0 0
11.2893 0 0
11.2893 0 0
11.3862 0 0
11.3862 0 0
11.4832 0 0
11.4832 0 0
11.5801 0 0
11.5801 0 0
11.677 0 0
11.677 0 0
11.7739 0 0
11.7739 0 0
11.8708 0 0
11.8708 0 0
11.9678 0 0
11.9678 0 0
12.0647 0 0
12.0647 0 0
12.1616 0 0
12.1616 0 0
12.2585 0 0
12.2585 0 0
12.3555 0 0
12.3555 0 0
12.4524 0 0
12.4524 0 0
12.5493 0 0
12.5493 0 0
12.6462 0 0
12.6462 0 0
12.7432 0 0
12.7432 0 0
12.8401 0 0
12.8401 0 0
12.937 0 0
12.937 0 0
13.0339 0 0
13.0339 0 0
13.1309 0 0
13.1309 0 0
13.2278 0 0
13.2278 0 0
13.3247 0 0
13.3247 0 0
13.4216 0 0
13.4216 0 0
13.5186 0 0
13.5186 0 0
13.6155 0 0
13.6155 0 0
13.7124 0 0
13.7124 0 0
13.8093 0 0
13.8093 0 0
13.9062 0 0
13.9062 0 0
14.0032 0 0
14.0032 0 0
14.1001 0 0
14.1001 0 0
14.197 0 0
14.197 0 0
14.2939 0 0
14.2939 0 0
14.3909 0 0
14.3909 0 0
14.4878 0 0
14.4878 0 0
14.5847 0 0
14.5847 0 0
14.6816 0 0
14.6816 0 0
14.7786 0 0
14.7786 0 0
14.8755 0 0
14.8755 0 0
14.9724 0 0
14.9724 0 0
15.0693 0 0
15.0693 0 0
15.1663 0 0
15.1663 0 0
15.2632 0 0
15.2632 0 0
15.3601 0 0
15.3601 0 0
15.457 0 0
15.457 0 0
15.554 0 0
15.554 0 0
15.6509 0 0
15.6509 0 0
15.7478 0 0
15.7478 0 0
15.8447 0 0
15.8447 0 0
15.9417 0 0
15.9417 0 0
16.0386 0 0
16.0386 0 0
16.1355 0 0
16.1355 0 0
16.2324 0 0
16.2324 0 0
16.3293 0 0
16.3293 0 0
16.4263 0 0
16.4263 0 0
16.5232 0 0
16.5232 0 0
16.6201 0 0
16.6201 0 0
16.717 0 0
16.717 0 0
16.814 0 0
16.814 0 0
16.9109 0 0
16.9109 0 0
17.0078 0 0
17.0078 0 0
17.1047 0 0
17.1047 0 0
17.2017 0 0
17.2017 0 0
17.2986 0 0
17.2986 0 0
17.3955 0 0
17.3955 0 0
17.4924 0 0
17.4924 0 0
17.5894 0 0
17.5894 0 0
17.6863 0 0
17.6863 0 0
17.7832 0 0
17.7832 0 0
17.8801 0 0
17.8801 0 0
17.9771 0 0
17.9771 0 0
18.074 0 0
18.074 0 0
18.1709 0 0
18.1709 0 0
18.2678 0 0
18.2678 0 0
18.3647 0 0
18.3647 0 0
18.4617 0 0
18.4617 0 0
18.5586 0 0
18.5586 0 0
18.6555 0 0
18.6555 0 0
18.7524 0 0
18.7524 0 0
18.8494 0 0
18.8494 0 0
18.9463 0 0
18.9463 0 0
19.0432 0 0
19.0432 0 0
19.1401 0 0
19.1401 0 0
19.2371 0 0
19.2371 0 0
19.334 0 0
19.334 0 0
19.4309 0 0
19.4309 0 0
19.5278 0 0
19.5278 0 0
19.6248 0 0
19.6248 0 0
19.7217 0 0
19.7217 0 0
19.8186 0 0
19.8186 0 0
19.9155 0 0
19.9155 0 0
20.0125 0 0
20.0125 0 0
20.1094 0 0
20.1094 0 0
20.2063 0 0
20.2063 0 0
20.3032 0 0
20.3032 0 0
20.4001 0 0
20.4001 0 0
20.4971 0 0
20.4971 0 0
20.594 0 0
20.594 0 0
20.6909 0 0
20.6909 0 0
20.7878 0 0
20.7878 0 0
20.8848 0 0
20.8848 0 0
20.9817 0 0
20.9817 0 0
21.0786 0 0
21.0786 0 0
21.1755 0 0
21.1755 0 0
21.2725 0 0
21.2725 0 0
21.3694 0 0
21.3694 0 0
21.4663 0 0
21.4663 0 0
21.5632 0 0
21.5632 0 0
21.6602 0 0
21.6602 0 0
21.7571 0 0
21.7571 0 0
21.854 0 0
21.854 0 0
21.9509 0 0
21.9509 0 0
22.0479 0 0
22.0479 0 0
22.1448 0 0
22.1448 0 0
22.2417 0 0
22.2417 0 0
22.3386 0 0
22.3386 0 0
22.4355 0 0
22.4355 0 0
22.5325 0 0
22.5325 0 0
22.6294 0 0
22.6294 0 0
22.7263 0 0
22.7263 0 0
22.8232 0 0
22.8232 0 0
22.9202 0 0
22.9202 0 0
23.0171 0 0
23.0171 0 0
23.114 0 0
23.114 0 0
23.2109 0 0
23.2109 0 0
23.3079 0 0
23.3079 0 0
23.4048 0 0
23.4048 0 0
23.5017 0 0
23.5017 0 0
23.5986 0 0
23.5986 0 0
23.6956 0 0
23.6956 0 0
23.7925 0 0
23.7925 0 0
23.8894 0 0
23.8894 0 0
23.9863 0 0
23.9863 0 0
24.0833 0 0
24.0833 0 0
24.1802 0 0
24.1802 0 0
24.2771 0 0
24.2771 0 0
24.374 0 0
24.374 0 0
24.4709 0 0
24.4709 0 0
24.5679 0 0
24.5679 0 0
24.6648 0 0
24.6648 0 0
24.7617 0 0
24.7617 0 0
24.8586 0 0
24.8586 0 0
24.9556 0 0
24.9556 0 0
25.0525 0 0
25.0525 0 0
25.1494 0 0
25.1494 0 0
25.2463 0 0
25.2463 0 0
25.3433 0 0
25.3433 0 0
25.4402 0 0
25.4402 0 0
25.5371 0 0
25.5371 0 0
25.634 0 0
25.634 0 0
25.731 0 0
25.731 0 0
25.8279 0 0
25.8279 0 0
25.9248 0 0
25.9248 0 0
26.0217 0 0
26.0217 0 0
26.1187 0 0
26.1187 0 0
26.2156 0 0
26.2156 0 0
26.3125 0 0
26.3125 0 0
26.4094 0 0
26.4094 0 0
26.5063 0 0
26.5063 0 0
26.6033 0 0
26.6033 0 0
26.7002 0 0
26.7002 0 0
26.7971 0 0
26.7971 0 0
26.894 0 0
26.894 0 0
26.991 0 0
26.991 0 0
27.0879 0 0
27.0879 0 0
27.1848 0 0
27.1848 0 0
27.2817 0 0
27.2817 0 0
27.3787 0 0
27.3787 0 0
27.4756 0 0
27.4756 0 0
27.5725 0 0
27.5725 0 0
27.6694 0 0
27.6694 0 0
27.7664 0 0
27.7664 0 0
27.8633 0 0
27.8633 0 0
27.9602 0 0
27.9602 0 0
28.0571 0 0
28.0571 0 0
28.1541 0 0
28.1541 0 0
28.251 0 0
28.251 0 0
28.3479 0 0
28.3479 0 0
28.4448 0 0
28.4448 0 0
28.5417 0 0
28.5417 0 0
28.6387 0 0
28.6387 0 0
28.7356 0 0
28.7356 0 0
28.8325 0 0
28.8325 0 0
28.9294 0 0
28.9294 0 0
29.0264 0 0
29.0264 0 0
29.1233 0 0
29.1233 0 0
29.2202 0 0
29.2202 0 0
29.3171 0 0
29.3171 0 0
29.4141 0 0
29.4141 0 0
29.511 0 0
29.511 0 0
29.6079 0 0
29.6079 0 0
29.7048 0 0
29.7048 0 0
29.8018 0 0
29.8018 0 0
29.8987 0 0
29.8987 0 0
29.9956 0 0
29.9956 0 0
30.0925 0 0
30.0925 0 0
30.1895 0 0
30.1895 0 0
30.2864 0 0
30.2864 0 0
30.3833 0 0
30.3833 0 0
30.4802 0 0
30.4802 0 0
30.5771 0 0
30.5771 0 0
30.6741 0 0
30.6741 0 0
30.771 0 0
30.771 0 0
30.8679 0 0
30.8679 0 0
30.9648 0 0
30.9648 0 0
31.0618 0 0
31.0618 0 0
31.1587 0 0
31.1587 0 0
31.2556 0 0
31.2556 0 0
31.3525 0 0
31.3525 0 0
31.4495 0 0
31.4495 0 0
31.5464 0 0
31.5464 0 0
31.6433 0 0
31.6433 0 0
31.7402 0 0
31.7402 0 0
31.8372 0 0
31.8372 0 0
31.9341 0 0
31.9341 0 0
32.031 0 0
32.031 0 0
32.1279 0 0
32.1279 0 0
32.2249 0 0
32.2249 0 0
32.3218 0 0
32.3218 0 0
32.4187 0 0
32.4187 0 0
32.5156 0 0
32.5156 0 0
32.6125 0 0
32.6125 0 0
32.7095 0 0
32.7095 0 0
32.8064 0 0
32.8064 0 0
32.9033 0 0
32.9033 0 0
33.0002 0 0
33.0002 0 0
33.0972 0 0
33.0972 0 0
33.1941 0 0
33.1941 0 0
33.291 0 0
33.291 0 0
33.3879 0 0
33.3879 0 0
33.4849 0 0
33.4849 0 0
33.5818 0 0
33.5818 0 0
33.6787 0 0
33.6787 0 0
33.7756 0 0
33.7756 0 0
33.8726 0 0
33.8726 0 0
33.9695 0 0
33.9695 0 0
34.0664 0 0
34.0664 0 0
34.1633 0 0
34.1633 0 0
34.2603 0 0
34.2603 0 0
34.3572 0 0
34.3572 0 0
34.4541 0 0
34.4541 0 0
34.551 0 0
34.551 0 0
34.6479 0 0
34.6479 0 0
34.7449 0 0
34.7449 0 0
34.8418 0 0
34.8418 0 0
34.9387 0 0
34.9387 0 0
35.0356 0 0
35.0356 0 0
35.1326 0 0
35.1326 0 0
35.2295 0 0
35.2295 0 0
35.3264 0 0
35.3264 0 0
35.4233 0 0
35.4233 0 0
35.5203 0 0
35.5203 0 0
35.6172 0 0
35.6172 0 0
35.7141 0 0
35.7141 0 0
35.811 0 0
35.811 0 0
35.908 0 0
35.908 0 0
36.0049 0 0
36.0049 0 0
36.1018 0 0
36.1018 0 0
36.1987 0 0
36.1987 0 0
36.2957 0 0
36.2957 0 0
36.3926 0 0
36.3926 0 0
36.4895 0 0
36.4895 0 0
36.5864 0 0
36.5864 0 0
36.6833 0 0
36.6833 0 0
36.7803 0 0
36.7803 0 0
36.8772 0 0
36.8772 0 0
36.9741 0 0
36.9741 0 0
37.071 0 0
37.071 0 0
37.168 0 0
37.168 0 0
37.2649 0 0
37.2649 0 0
37.3618 0 0
37.3618 0 0
37.4587 0 0
37.4587 0 0
37.5557 0 0
37.5557 0 0
37.6526 0 0
37.6526 0 0
37.7495 0 0
37.7495 0 0
37.8464 0 0
37.8464 0 0
37.9434 0 0
37.9434 0 0
38.0403 0 0
38.0403 0 0
38.1372 0 0
38.1372 0 0
38.2341 0 0
38.2341 0 0
38.3311 0 0
38.3311 0 0
38.428 0 0
38.428 0 0
38.5249 0 0
38.5249 0 0
38.6218 0 0
38.6218 0 0
38.7188 0 0
38.7188 0 0
38.8157 0 0
38.8157 0 0
38.9126 0 0
38.9126 0 0
39.0095 0 0
39.0095 0 0
39.1064 0 0
39.1064 0 0
39.2034 0 0
39.2034 0 0
39.3003 0 0
39.3003 0 0
39.3972 0 0
39.3972 0 0
39.4941 0 0
39.4941 0 0
39.5911 0 0
39.5911 0 0
39.688 0 0
39.688 0 0
39.7849 0 0
39.7849 0 0
39.8818 0 0
39.8818 0 0
39.9788 0 0
39.9788 0 0
40.0757 0 0
40.0757 0 0
40.1726 0 0
40.1726 0 0
40.2695 0 0
40.2695 0 0
40.3665 0 0
40.3665 0 0
40.4634 0 0
40.4634 0 0
40.5603 0 0
40.5603 0 0
40.6572 0 0
40.6572 0 0
40.7542 0 0
40.7542 0 0
40.8511 0 0
40.8511 0 0
40.948 0 0
40.948 0 0
41.0449 0 0
41.0449 0 0
41.1418 0 0
41.1418 0 0
41.2388 0 0
41.2388 0 0
41.3357 0 0
41.3357 0 0
41.4326 0 0
41.4326 0 0
41.5295 0 0
41.5295 0 0
[...]
POINT_DATA 4096
SCALARS solution_0 double 1
LOOKUP_TABLE default
457.405 447.907 447.907 439.893 439.893 433.061 433.061 427.181 427.181 422.076 422.076 417.603 417.603 413.652 413.652 410.133 410.133 406.973 406.973 404.114 404.114 401.507 401.507 399.112 399.112 396.896 396.896 394.831 394.831 392.893 392.893 391.064 391.064 389.325 389.325 387.663 387.663 386.067 386.067 384.525 384.525 383.028 383.028 381.57 381.57 380.144 380.144 378.744 378.744 377.365 377.365 376.004 376.004 374.656 374.656 373.318 373.318 371.989 371.989 370.665 370.665 369.344 369.344 368.026 368.026 366.708 366.708 365.389 365.389 364.069 364.069 362.746 362.746 361.419 361.419 360.089 360.089 358.754 358.754 357.415 357.415 356.07 356.07 354.72 354.72 353.364 353.364 352.002 352.002 350.635 350.635 349.262 349.262 347.884 347.884 346.5 346.5 345.11 345.11 343.714 343.714 342.313 342.313 340.907 340.907 339.496 339.496 338.08 338.08 336.66 336.66 335.235 335.235 333.805 333.805 332.372 332.372 330.934 330.934 329.493 329.493 328.049 328.049 326.601 326.601 325.151 325.151 323.697 323.697 322.241 322.241 320.783 320.783 319.323 319.323 317.861 317.861 316.397 316.397 314.932 314.932 313.466 313.466 311.999 311.999 310.531 310.531 309.063 309.063 307.594 307.594 306.125 306.125 304.657 304.657 303.188 303.188 301.72 301.72 300.253 300.253 298.786 298.786 297.321 297.321 295.856 295.856 294.393 294.393 292.932 292.932 291.472 291.472 290.014 290.014 288.558 288.558 287.104 287.104 285.653 285.653 284.204 284.204 282.757 282.757 281.313 281.313 279.872 279.872 278.434 278.434 276.999 276.999 275.567 275.567 274.139 274.139 272.714 272.714 271.292 271.292 269.874 269.874 268.46 268.46 267.05 267.05 265.643 265.643 264.241 264.241 262.843 262.843 261.449 261.449 260.059 260.059 258.674 258.674 257.293 257.293 255.916 255.916 254.545 254.545 253.177 253.177 251.815 251.815 250.457 250.457 249.105 249.105 247.757 247.757 246.414 246.414 245.076 245.076 243.743 243.743 242.415 242.415 241.093 241.093 239.775 239.775 238.463 238.463 237.157 237.157 235.855 235.855 234.559 234.559 233.268 233.268 231.983 231.983 230.704 230.704 229.429 229.429 228.161 228.161 226.898 226.898 225.64 225.64 224.388 224.388 223.142 223.142 221.901 221.901 220.666 220.666 219.437 219.437 218.213 218.213 216.995 216.995 215.783 215.783 214.577 214.577 213.376 213.376 212.181 212.181 210.992 210.992 209.809 209.809 208.631 208.631 207.459 207.459 206.294 206.294 205.133 205.133 203.979 203.979 202.83 202.83 201.688 201.688 200.551 200.551 199.42 199.42 198.294 198.294 197.175 197.175 196.061 196.061 194.953 194.953 193.851 193.851 192.754 192.754 191.664 191.664 190.579 190.579 189.5 189.5 188.426 188.426 187.359 187.359 186.297 186.297 185.241 185.241 184.19 184.19 183.145 183.145 182.106 182.106 181.073 181.073 180.045 180.045 179.023 179.023 178.006 178.006 176.995 176.995 175.99 175.99 174.99 174.99 173.996 173.996 173.007 173.007 172.024 172.024 171.046 171.046 170.074 170.074 169.107 169.107 168.146 168.146 167.19 167.19 166.24 166.24 165.295 165.295 164.355 164.355 163.421 163.421 162.492 162.492 161.568 161.568 160.65 160.65 159.737 159.737 158.829 158.829 157.926 157.926 157.029 157.029 156.137 156.137 155.25 155.25 154.368 154.368 153.491 153.491 152.619 152.619 151.753 151.753 150.891 150.891 150.035 150.035 149.183 149.183 148.337 148.337 147.495 147.495 146.659 146.659 145.827 145.827 145 145 144.178 144.178 143.361 143.361 142.549 142.549 141.741 141.741 140.939 140.939 140.141 140.141 139.348 139.348 138.559 138.559 137.775 137.775 136.996 136.996 136.221 136.221 135.451 135.451 134.686 134.686 133.925 133.925 133.169 133.169 132.417 132.417 131.67 131.67 130.927 130.927 130.189 130.189 129.455 129.455 128.725 128.725 128 128 127.279 127.279 126.562 126.562 125.85 125.85 125.142 125.142 124.438 124.438 123.738 123.738 123.043 123.043 122.352 122.352 121.665 121.665 120.982 120.982 120.303 120.303 119.628 119.628 118.958 118.958 118.291 118.291 117.628 117.628 116.97 116.97 116.315 116.315 115.664 115.664 115.017 115.017 114.375 114.375 113.736 113.736 113.1 113.1 112.469 112.469 111.842 111.842 111.218 111.218 110.598 110.598 109.982 109.982 109.369 109.369 108.76 108.76 108.155 108.155 107.554 107.554 106.956 106.956 106.362 106.362 105.771 105.771 105.184 105.184 104.6 104.6 104.02 104.02 103.443 103.443 102.87 102.87 102.3 102.3 101.733 101.733 101.169 101.169 100.609 100.609 100.052 100.052 99.4984 99.4984 98.9477 98.9477 98.4003 98.4003 97.8559 97.8559 97.3146 97.3146 96.7763 96.7763 96.2411 96.2411 95.7089 95.7089 95.1797 95.1797 94.6535 94.6535 94.1302 94.1302 93.6099 93.6099 93.0925 93.0925 92.5781 92.5781 92.0666 92.0666 91.5579 91.5579 91.0522 91.0522 90.5493 90.5493 90.0493 90.0493 89.5522 89.5522 89.0578 89.0578 88.5662 88.5662 88.0773 88.0773 87.591 87.591 87.1072 87.1072 86.6259 86.6259 86.1468 86.1468 85.6699 85.6699 85.1948 85.1948 84.7214 84.7214 84.2494 84.2494 83.7785 83.7785 83.3083 83.3083 82.8385 82.8385 82.3687 82.3687 81.8987 81.8987 81.428 81.428 80.9565 80.9565 80.4839 80.4839 80.0102 80.0102 79.5353 79.5353 79.0595 79.0595 78.5831 78.5831 78.1066 78.1066 77.6306 77.6306 77.1561 77.1561 76.6839 76.6839 76.2153 76.2153 75.7513 75.7513 75.2932 75.2932 74.8421 74.8421 74.3992 74.3992 73.9655 73.9655 73.5419 73.5419 73.129 73.129 72.7275 72.7275 72.3377 72.3377 71.9598 71.9598 71.5941 71.5941 71.2406 71.2406 70.8993 70.8993 70.5702 70.5702 70.2534 70.2534 69.9489 69.9489 69.6567 69.6567 69.3771 69.3771 69.1101 69.1101 68.8558 68.8558 68.614 68.614 68.3848 68.3848 68.1678 68.1678 67.9626 67.9626 67.7683 67.7683 67.5842 67.5842 67.4091 67.4091 67.2416 67.2416 67.0801 67.0801 66.9229 66.9229 66.768 66.768 66.6133 66.6133 66.4565 66.4565 66.2955 66.2955 66.1278 66.1278 65.9513 65.9513 65.7636 65.7636 65.5626 65.5626 65.3464 65.3464 65.1132 65.1132 64.8616 64.8616 64.5903 64.5903 64.2985 64.2985 63.9857 63.9857 63.6518 63.6518 63.297 63.297 62.9219 62.9219 62.5275 62.5275 62.1152 62.1152 61.6865 61.6865 61.2434 61.2434 60.7878 60.7878 60.3221 60.3221 59.8487 59.8487 59.3698 59.3698 58.888 58.888 58.4055 58.4055 57.9246 57.9246 57.4474 57.4474 56.9757 56.9757 56.5111 56.5111 56.0553 56.0553 55.6092 55.6092 55.1739 55.1739 54.7501 54.7501 54.3381 54.3381 53.9381 53.9381 53.5503 53.5503 53.1744 53.1744 52.81 52.81 52.4568 52.4568 52.1142 52.1142 51.7815 51.7815 51.458 51.458 51.1431 51.1431 50.8361 50.8361 50.5362 50.5362 50.2428 50.2428 49.9552 49.9552 49.6728 49.6728 49.3951 49.3951 49.1217 49.1217 48.8519 48.8519 48.5856 48.5856 48.3222 48.3222 48.0616 48.0616 47.8034 47.8034 47.5475 47.5475 47.2937 47.2937 47.0419 47.0419 46.7918 46.7918 46.5435 46.5435 46.2968 46.2968 46.0517 46.0517 45.8082 45.8082 45.5661 45.5661 45.3254 45.3254 45.0862 45.0862 44.8483 44.8483 44.6118 44.6118 44.3767 44.3767 44.1429 44.1429 43.9104 43.9104 43.6793 43.6793 43.4494 43.4494 43.2209 43.2209 42.9936 42.9936 42.7676 42.7676 42.5428 42.5428 42.3193 42.3193 42.0971 42.0971 41.876 41.876 41.6562 41.6562 41.4377 41.4377 41.2203 41.2203 41.0041 41.0041 40.7891 40.7891 40.5753 40.5753 40.3627 40.3627 40.1512 40.1512 39.9409 39.9409 39.7317 39.7317 39.5237 39.5237 39.3168 39.3168 39.1111 39.1111 38.9064 38.9064 38.7029 38.7029 38.5004 38.5004 38.2991 38.2991 38.0988 38.0988 37.8996 37.8996 37.7015 37.7015 37.5045 37.5045 37.3085 37.3085 37.1135 37.1135 36.9196 36.9196 36.7268 36.7268 36.5349 36.5349 36.3441 36.3441 36.1543 36.1543 35.9655 35.9655 35.7776 35.7776 35.5908 35.5908 35.405 35.405 35.2201 35.2201 35.0362 35.0362 34.8533 34.8533 34.6714 34.6714 34.4903 34.4903 34.3103 34.3103 34.1311 34.1311 33.953 33.953 33.7757 33.7757 33.5993 33.5993 33.4239 33.4239 33.2494 33.2494 33.0757 33.0757 32.903 32.903 32.7312 32.7312 32.5602 32.5602 32.3901 32.3901 32.2209 32.2209 32.0526 32.0526 31.8851 31.8851 31.7185 31.7185 31.5527 31.5527 31.3878 31.3878 31.2237 31.2237 31.0604 31.0604 30.8979 30.8979 30.7363 30.7363 30.5755 30.5755 30.4155 30.4155 30.2563 30.2563 30.098 30.098 29.9404 29.9404 29.7836 29.7836 29.6275 29.6275 29.4723 29.4723 29.3178 29.3178 29.1641 29.1641 29.0112 29.0112 28.859 28.859 28.7076 28.7076 28.5569 28.5569 28.407 28.407 28.2578 28.2578 28.1094 28.1094 27.9617 27.9617 27.8147 27.8147 27.6684 27.6684 27.5229 27.5229 27.378 27.378 27.2339 27.2339 27.0905 27.0905 26.9477 26.9477 26.8057 26.8057 26.6644 26.6644 26.5237 26.5237 26.3837 26.3837 26.2444 26.2444 26.1058 26.1058 25.9678 25.9678 25.8305 25.8305 25.6939 25.6939 25.5579 25.5579 25.4226 25.4226 25.2879 25.2879 25.1539 25.1539 25.0205 25.0205 24.8877 24.8877 24.7556 24.7556 24.6241 24.6241 24.4933 24.4933 24.363 24.363 24.2334 24.2334 24.1044 24.1044 23.976 23.976 23.8482 23.8482 23.721 23.721 23.5943 23.5943 23.4683 23.4683 23.3429 23.3429 23.2181 23.2181 23.0939 23.0939 22.9702 22.9702 22.8471 22.8471 22.7246 22.7246 22.6027 22.6027 22.4813 22.4813 22.3605 22.3605 22.2402 22.2402 22.1205 22.1205 22.0014 22.0014 21.8828 21.8828 21.7648 21.7648 21.6473 21.6473 21.5303 21.5303 21.4139 21.4139 21.298 21.298 21.1826 21.1826 21.0678 21.0678 20.9535 20.9535 20.8397 20.8397 20.7265 20.7265 20.6137 20.6137 20.5015 20.5015 20.3898 20.3898 20.2785 20.2785 20.1678 20.1678 20.0576 20.0576 19.9479 19.9479 19.8387 19.8387 19.73 19.73 19.6217 19.6217 19.514 19.514 19.4067 19.4067 19.2999 19.2999 19.1936 19.1936 19.0878 19.0878 18.9824 18.9824 18.8775 18.8775 18.7731 18.7731 18.6692 18.6692 18.5657 18.5657 18.4626 18.4626 18.36 18.36 18.2579 18.2579 18.1562 18.1562 18.055 18.055 17.9543 17.9543 17.8539 17.8539 17.754 17.754 17.6546 17.6546 17.5556 17.5556 17.457 17.457 17.3588 17.3588 17.2611 17.2611 17.1638 17.1638 17.067 17.067 16.9705 16.9705 16.8745 16.8745 16.7789 16.7789 16.6837 16.6837 16.5889 16.5889 16.4946 16.4946 16.4006 16.4006 16.3071 16.3071 16.2139 16.2139 16.1212 16.1212 16.0288 16.0288 15.9369 15.9369 15.8453 15.8453 15.7542 15.7542 15.6634 15.6634 15.573 15.573 15.483 15.483 15.3934 15.3934 15.3042 15.3042 15.2154 15.2154 15.1269 15.1269 15.0388 15.0388 14.9511 14.9511 14.8638 14.8638 14.7768 14.7768 14.6902 14.6902 14.604 14.604 14.5181 14.5181 14.4326 14.4326 14.3474 14.3474 14.2627 14.2627 14.1782 14.1782 14.0941 14.0941 14.0104 14.0104 13.9271 13.9271 13.844 13.844 13.7614 13.7614 13.679 13.679 13.597 13.597 13.5154 13.5154 13.4341 13.4341 13.3531 13.3531 13.2725 13.2725 13.1922 13.1922 13.1123 13.1123 13.0326 13.0326 12.9533 12.9533 12.8744 12.8744 12.7957 12.7957 12.7174 12.7174 12.6394 12.6394 12.5617 12.5617 12.4844 12.4844 12.4074 12.4074 12.3306 12.3306 12.2542 12.2542 12.1781 12.1781 12.1024 12.1024 12.0269 12.0269 11.9517 11.9517 11.8769 11.8769 11.8023 11.8023 11.7281 11.7281 11.6541 11.6541 11.5805 11.5805 11.5071 11.5071 11.4341 11.4341 11.3614 11.3614 11.2889 11.2889 11.2167 11.2167 11.1449 11.1449 11.0733 11.0733 11.002 11.002 10.931 10.931 10.8603 10.8603 10.7898 10.7898 10.7197 10.7197 10.6498 10.6498 10.5802 10.5802 10.5109 10.5109 10.4419 10.4419 10.3731 10.3731 10.3046 10.3046 10.2364 10.2364 10.1685 10.1685 10.1008 10.1008 10.0334 10.0334 9.96627 9.96627 9.8994 9.8994 9.8328 9.8328 9.76646 9.76646 9.70039 9.70039 9.63457 9.63457 9.56902 9.56902 9.50373 9.50373 9.43869 9.43869 9.37391 9.37391 9.30938 9.30938 9.24511 9.24511 9.18109 9.18109 9.11732 9.11732 9.0538 9.0538 8.99053 8.99053 8.92751 8.92751 8.86473 8.86473 8.8022 8.8022 8.73992 8.73992 8.67787 8.67787 8.61607 8.61607 8.55451 8.55451 8.49319 8.49319 8.4321 8.4321 8.37125 8.37125 8.31064 8.31064 8.25027 8.25027 8.19012 8.19012 8.13021 8.13021 8.07053 8.07053 8.01109 8.01109 7.95187 7.95187 7.89288 7.89288 7.83411 7.83411 7.77557 7.77557 7.71726 7.71726 7.65917 7.65917 7.6013 7.6013 7.54366 7.54366 7.48623 7.48623 7.42903 7.42903 7.37204 7.37204 7.31528 7.31528 7.25872 7.25872 7.20239 7.20239 7.14627 7.14627 7.09036 7.09036 7.03466 7.03466 6.97918 6.97918 6.9239 6.9239 6.86884 6.86884 6.81399 6.81399 6.75934 6.75934 6.7049 6.7049 6.65066 6.65066 6.59663 6.59663 6.54281 6.54281 6.48918 6.48918 6.43576 6.43576 6.38254 6.38254 6.32952 6.32952 6.2767 6.2767 6.22407 6.22407 6.17165 6.17165 6.11942 6.11942 6.06739 6.06739 6.01555 6.01555 5.9639 5.9639 5.91245 5.91245 5.86119 5.86119 5.81012 5.81012 5.75924 5.75924 5.70855 5.70855 5.65805 5.65805 5.60774 5.60774 5.55761 5.55761 5.50767 5.50767 5.45792 5.45792 5.40834 5.40834 5.35896 5.35896 5.30975 5.30975 5.26073 5.26073 5.21189 5.21189 5.16323 5.16323 5.11474 5.11474 5.06644 5.06644 5.01831 5.01831 4.97037 4.97037 4.92259 4.92259 4.875 4.875 4.82757 4.82757 4.78032 4.78032 4.73325 4.73325 4.68635 4.68635 4.63961 4.63961 4.59305 4.59305 4.54666 4.54666 4.50044 4.50044 4.45439 4.45439 4.4085 4.4085 4.36278 4.36278 4.31723 4.31723 4.27185 4.27185 4.22663 4.22663 4.18157 4.18157 4.13667 4.13667 4.09194 4.09194 4.04738 4.04738 4.00297 4.00297 3.95872 3.95872 3.91463 3.91463 3.87071 3.87071 3.82694 3.82694 3.78332 3.78332 3.73987 3.73987 3.69657 3.69657 3.65343 3.65343 3.61044 3.61044 3.56761 3.56761 3.52493 3.52493 3.48241 3.48241 3.44003 3.44003 3.39781 3.39781 3.35574 3.35574 3.31382 3.31382 3.27205 3.27205 3.23043 3.23043 3.18896 3.18896 3.14763 3.14763 3.10645 3.10645 3.06542 3.06542 3.02454 3.02454 2.9838 2.9838 2.94321 2.94321 2.90276 2.90276 2.86245 2.86245 2.82228 2.82228 2.78226 2.78226 2.74238 2.74238 2.70265 2.70265 2.66305 2.66305 2.62359 2.62359 2.58427 2.58427 2.54509 2.54509 2.50605 2.50605 2.46714 2.46714 2.42838 2.42838 2.38975 2.38975 2.35125 2.35125 2.31289 2.31289 2.27467 2.27467 2.23658 2.23658 2.19862 2.19862 2.1608 2.1608 2.1231 2.1231 2.08555 2.08555 2.04812 2.04812 2.01082 2.01082 1.97365 1.97365 1.93662 1.93662 1.89971 1.89971 1.86293 1.86293 1.82628 1.82628 1.78975 1.78975 1.75336 1.75336 1.71709 1.71709 1.68094 1.68094 1.64493 1.64493 1.60903 1.60903 1.57326 1.57326 1.53762 1.53762 1.5021 1.5021 1.4667 1.4667 1.43142 1.43142 1.39627 1.39627 1.36124 1.36124 1.32633 1.32633 1.29154 1.29154 1.25686 1.25686 1.22231 1.22231 1.18788 1.18788 1.15357 1.15357 1.11937 1.11937 1.08529 1.08529 1.05133 1.05133 1.01749 1.01749 0.983759 0.983759 0.950146 0.950146 0.916648 0.916648 0.883266 0.883266 0.849997 0.849997 0.816843 0.816843 0.783801 0.783801 0.750873 0.750873 0.718057 0.718057 0.685353 0.685353 0.652761 0.652761 0.620279 0.620279 0.587909 0.587909 0.555648 0.555648 0.523498 0.523498 0.491456 0.491456 0.459524 0.459524 0.4277 0.4277 0.395984 0.395984 0.364376 0.364376 0.332875 0.332875 0.301481 0.301481 0.270193 0.270193 0.23901 0.23901 0.207934 0.207934 0.176962 0.176962 0.146095 0.146095 0.115333 0.115333 0.0846741 0.0846741 0.0541187 0.0541187 0.0236663 0.0236663 -0.00668342 -0.00668342 -0.036931 -0.036931 -0.0670767 -0.0670767 -0.097121 -0.097121 -0.127064 -0.127064 -0.156907 -0.156907 -0.18665 -0.18665 -0.216292 -0.216292 -0.245835 -0.245835 -0.27528 -0.27528 -0.304625 -0.304625 -0.333872 -0.333872 -0.363022 -0.363022 -0.392074 -0.392074 -0.421028 -0.421028 -0.449886 -0.449886 -0.478648 -0.478648 -0.507313 -0.507313 -0.535883 -0.535883 -0.564358 -0.564358 -0.592738 -0.592738 -0.621023 -0.621023 -0.649214 -0.649214 -0.677311 -0.677311 -0.705315 -0.705315 -0.733226 -0.733226 -0.761044 -0.761044 -0.788769 -0.788769 -0.816403 -0.816403 -0.843945 -0.843945 -0.871396 -0.871396 -0.898755 -0.898755 -0.926025 -0.926025 -0.953203 -0.953203 -0.980292 -0.980292 -1.00729 -1.00729 -1.0342 -1.0342 -1.06102 -1.06102 -1.08776 -1.08776 -1.1144 -1.1144 -1.14096 -1.14096 -1.16743 -1.16743 -1.19381 -1.19381 -1.2201 -1.2201 -1.24631 -1.24631 -1.27243 -1.27243 -1.29847 -1.29847 -1.32442 -1.32442 -1.35029 -1.35029 -1.37607 -1.37607 -1.40176 -1.40176 -1.42737 -1.42737 -1.4529 -1.4529 -1.47834 -1.47834 -1.50371 -1.50371 -1.52898 -1.52898 -1.55418 -1.55418 -1.57929 -1.57929 -1.60432 -1.60432 -1.62927 -1.62927 -1.65414 -1.65414 -1.67892 -1.67892 -1.70363 -1.70363 -1.72825 -1.72825 -1.75279 -1.75279 -1.77726 -1.77726 -1.80164 -1.80164 -1.82595 -1.82595 -1.85017 -1.85017 -1.87432 -1.87432 -1.89839 -1.89839 -1.92238 -1.92238 -1.94629 -1.94629 -1.97013 -1.97013 -1.99389 -1.99389 -2.01757 -2.01757 -2.04117 -2.04117 -2.0647 -2.0647 -2.08815 -2.08815 -2.11152 -2.11152 -2.13482 -2.13482 -2.15805 -2.15805 -2.18119 -2.18119 -2.20427 -2.20427 -2.22727 -2.22727 -2.25019 -2.25019 -2.27304 -2.27304 -2.29582 -2.29582 -2.31853 -2.31853 -2.34116 -2.34116 -2.36371 -2.36371 -2.3862 -2.3862 -2.40861 -2.40861 -2.43095 -2.43095 -2.45322 -2.45322 -2.47542 -2.47542 -2.49755 -2.49755 -2.5196 -2.5196 -2.54158 -2.54158 -2.5635 -2.5635 -2.58534 -2.58534 -2.60711 -2.60711 -2.62882 -2.62882 -2.65045 -2.65045 -2.67201 -2.67201 -2.69351 -2.69351 -2.71494 -2.71494 -2.73629 -2.73629 -2.75758 -2.75758 -2.7788 -2.7788 -2.79996 -2.79996 -2.82104 -2.82104 -2.84206 -2.84206 -2.86301 -2.86301 -2.8839 -2.8839 -2.90472 -2.90472 -2.92547 -2.92547 -2.94616 -2.94616 -2.96677 -2.96677 -2.98733 -2.98733 -3.00782 -3.00782 -3.02824 -3.02824 -3.0486 -3.0486 -3.06889 -3.06889 -3.08912 -3.08912 -3.10929 -3.10929 -3.12939 -3.12939 -3.14942 -3.14942 -3.1694 -3.1694 -3.18931 -3.18931 -3.20915 -3.20915 -3.22894 -3.22894 -3.24866 -3.24866 -3.26832 -3.26832 -3.28791 -3.28791 -3.30745 -3.30745 -3.32692 -3.32692 -3.34633 -3.34633 -3.36568 -3.36568 -3.38497 -3.38497 -3.4042 -3.4042 -3.42337 -3.42337 -3.44247 -3.44247 -3.46152 -3.46152 -3.4805 -3.4805 -3.49943 -3.49943 -3.5183 -3.5183 -3.5371 -3.5371 -3.55585 -3.55585 -3.57454 -3.57454 -3.59317 -3.59317 -3.61174 -3.61174 -3.63025 -3.63025 -3.6487 -3.6487 -3.6671 -3.6671 -3.68544 -3.68544 -3.70372 -3.70372 -3.72194 -3.72194 -3.74011 -3.74011 -3.75822 -3.75822 -3.77627 -3.77627 -3.79427 -3.79427 -3.8122 -3.8122 -3.83009 -3.83009 -3.84791 -3.84791 -3.86568 -3.86568 -3.8834 -3.8834 -3.90106 -3.90106 -3.91866 -3.91866 -3.93621 -3.93621 -3.95371 -3.95371 -3.97115 -3.97115 -3.98853 -3.98853 -4.00586 -4.00586 -4.02314 -4.02314 -4.04036 -4.04036 -4.05753 -4.05753 -4.07465 -4.07465 -4.09171 -4.09171 -4.10872 -4.10872 -4.12567 -4.12567 -4.14257 -4.14257 -4.15942 -4.15942 -4.17622 -4.17622 -4.19297 -4.19297 -4.20966 -4.20966 -4.2263 -4.2263 -4.24289 -4.24289 -4.25942 -4.25942 -4.27591 -4.27591 -4.29235 -4.29235 -4.30873 -4.30873 -4.32506 -4.32506 -4.34134 -4.34134 -4.35757 -4.35757 -4.37375 -4.37375 -4.38989 -4.38989 -4.40597 -4.40597 -4.422 -4.422 -4.43798 -4.43798 -4.45391 -4.45391 -4.46979 -4.46979 -4.48562 -4.48562 -4.50141 -4.50141 -4.51714 -4.51714 -4.53283 -4.53283 -4.54846 -4.54846 -4.56405 -4.56405 -4.57959 -4.57959 -4.59509 -4.59509 -4.61053 -4.61053 -4.62593 -4.62593 -4.64127 -4.64127 -4.65658 -4.65658 -4.67183 -4.67183 -4.68704 -4.68704 -4.7022 -4.7022 -4.71731 -4.71731 -4.73238 -4.73238 -4.7474 -4.7474 -4.76237 -4.76237 -4.7773 -4.7773 -4.79218 -4.79218 -4.80702 -4.80702 -4.82181 -4.82181 -4.83655 -4.83655 -4.85125 -4.85125 -4.8659 -4.8659 -4.88051 -4.88051 -4.89507 -4.89507 -4.90959 -4.90959 -4.92407 -4.92407 -4.9385 -4.9385 -4.95288 -4.95288 -4.96722 -4.96722 -4.98152 -4.98152 -4.99577 -4.99577 -5.00998 -5.00998 -5.02414 -5.02414 -5.03826 -5.03826 -5.05234 -5.05234 -5.06638 -5.06638 -5.08037 -5.08037 -5.09432 -5.09432 -5.10822 -5.10822 -5.12209 -5.12209 -5.13591 -5.13591 -5.14968 -5.14968 -5.16342 -5.16342 -5.17711 -5.17711 -5.19076 -5.19076 -5.20437 -5.20437 -5.21794 -5.21794 -5.23147 -5.23147 -5.24495 -5.24495 -5.2584 -5.2584 -5.2718 -5.2718 -5.28516 -5.28516 -5.29848 -5.29848 -5.31176 -5.31176 -5.325 -5.325 -5.3382 -5.3382 -5.35136 -5.35136 -5.36447 -5.36447 -5.37755 -5.37755 -5.39059 -5.39059 -5.40359 -5.40359 -5.41655 -5.41655 -5.42946 -5.42946 -5.44234 -5.44234 -5.45518 -5.45518 -5.46798 -5.46798 -5.48074 -5.48074 -5.49347 -5.49347 -5.50615 -5.50615 -5.51879 -5.51879 -5.5314 -5.5314 -5.54397 -5.54397 -5.5565 -5.5565 -5.56899 -5.56899 -5.58144 -5.58144 -5.59386 -5.59386 -5.60623 -5.60623 -5.61857 -5.61857 -5.63087 -5.63087 -5.64314 -5.64314 -5.65536 -5.65536 -5.66755 -5.66755 -5.6797 -5.6797 -5.69182 -5.69182 -5.7039 -5.7039 -5.71594 -5.71594 -5.72794 -5.72794 -5.73991 -5.73991 -5.75184 -5.75184 -5.76374 -5.76374 -5.7756 -5.7756 -5.78742 -5.78742 -5.79921 -5.79921 -5.81096 -5.81096 -5.82267 -5.82267 -5.83435 -5.83435 -5.846 -5.846 -5.85761 -5.85761 -5.86918 -5.86918 -5.8807